#Generated From Cif

2800 atoms
0 bonds
0 angles
0 dihedrals
0 impropers
3 atom types

0 37.213735728369336 xlo xhi
0 37.213735728369336 ylo yhi
0 37.213735728369336 zlo zhi

Atoms

1 1 0 3.813 1.62 12.587
2 1 0 6.007 3.813 12.587
3 1 0 10.394 21.36 8.2
4 1 0 10.394 8.2 19.167
5 1 0 1.62 3.813 32.327
6 1 0 8.2 32.327 19.167
7 1 0 12.587 25.747 16.974
8 1 0 19.167 6.007 27.94
9 1 0 19.167 30.134 32.327
10 1 0 16.974 32.327 6.007
11 1 0 3.813 1.62 25.747
12 1 0 16.974 27.94 30.134
13 1 0 19.167 27.94 1.62
14 1 0 8.2 32.327 3.813
15 1 0 30.134 3.813 8.2
16 1 0 25.747 10.394 30.134
17 1 0 25.747 23.554 6.007
18 1 0 6.007 32.327 14.78
19 1 0 3.813 8.2 32.327
20 1 0 27.94 30.134 25.747
21 1 0 19.167 14.78 23.554
22 1 0 14.78 10.394 1.62
23 1 0 30.134 19.167 12.587
24 1 0 10.394 23.554 8.2
25 1 0 8.2 34.52 30.134
26 1 0 21.36 32.327 6.007
27 1 0 21.36 25.747 10.394
28 1 0 19.167 25.747 3.813
29 1 0 16.974 10.394 16.974
30 1 0 12.587 16.974 16.974
31 1 0 1.62 1.62 34.52
32 1 0 27.94 27.94 21.36
33 1 0 27.94 19.167 34.52
34 1 0 16.974 8.2 8.2
35 1 0 14.78 16.974 1.62
36 1 0 6.007 12.587 34.52
37 1 0 1.62 3.813 21.36
38 1 0 19.167 34.52 25.747
39 1 0 10.394 10.394 34.52
40 1 0 19.167 8.2 1.62
41 1 0 23.554 30.134 12.587
42 1 0 30.134 23.554 32.327
43 1 0 23.554 19.167 23.554
44 1 0 25.747 34.52 25.747
45 1 0 19.167 8.2 34.52
46 1 0 34.52 10.394 19.167
47 1 0 21.36 1.62 21.36
48 1 0 12.587 32.327 12.587
49 1 0 23.554 8.2 3.813
50 1 0 6.007 8.2 32.327
51 1 0 1.62 16.974 12.587
52 1 0 34.52 14.78 30.134
53 1 0 19.167 32.327 32.327
54 1 0 6.007 27.94 32.327
55 1 0 21.36 23.554 6.007
56 1 0 1.62 10.394 12.587
57 1 0 23.554 14.78 23.554
58 1 0 8.2 14.78 25.747
59 1 0 8.2 34.52 27.94
60 1 0 30.134 32.327 25.747
61 1 0 8.2 12.587 1.62
62 1 0 6.007 34.52 30.134
63 1 0 16.974 8.2 16.974
64 1 0 27.94 3.813 34.52
65 1 0 16.974 10.394 10.394
66 1 0 25.747 16.974 10.394
67 1 0 23.554 23.554 12.587
68 1 0 12.587 16.974 1.62
69 1 0 14.78 6.007 16.974
70 1 0 6.007 14.78 25.747
71 1 0 25.747 12.587 3.813
72 1 0 25.747 14.78 14.78
73 1 0 10.394 14.78 10.394
74 1 0 1.62 6.007 3.813
75 1 0 25.747 19.167 12.587
76 1 0 1.62 30.134 8.2
77 1 0 23.554 6.007 30.134
78 1 0 14.78 12.587 19.167
79 1 0 6.007 25.747 14.78
80 1 0 12.587 30.134 30.134
81 1 0 21.36 8.2 6.007
82 1 0 27.94 21.36 16.974
83 1 0 19.167 8.2 12.587
84 1 0 34.52 25.747 10.394
85 1 0 14.78 19.167 30.134
86 1 0 10.394 8.2 3.813
87 1 0 8.2 10.394 14.78
88 1 0 19.167 32.327 27.94
89 1 0 10.394 1.62 1.62
90 1 0 16.974 21.36 27.94
91 1 0 16.974 34.52 30.134
92 1 0 16.974 21.36 34.52
93 1 0 14.78 34.52 16.974
94 1 0 23.554 23.554 27.94
95 1 0 30.134 27.94 6.007
96 1 0 8.2 30.134 16.974
97 1 0 3.813 19.167 34.52
98 1 0 23.554 8.2 27.94
99 1 0 25.747 23.554 19.167
100 1 0 21.36 6.007 25.747
101 1 0 30.134 10.394 21.36
102 1 0 14.78 25.747 10.394
103 1 0 8.2 34.52 10.394
104 1 0 6.007 1.62 12.587
105 1 0 8.2 32.327 21.36
106 1 0 21.36 23.554 8.2
107 1 0 32.327 21.36 27.94
108 1 0 34.52 16.974 21.36
109 1 0 23.554 19.167 1.62
110 1 0 14.78 21.36 32.327
111 1 0 16.974 21.36 23.554
112 1 0 23.554 10.394 34.52
113 1 0 14.78 32.327 6.007
114 1 0 19.167 12.587 10.394
115 1 0 14.78 6.007 23.554
116 1 0 16.974 30.134 1.62
117 1 0 14.78 27.94 32.327
118 1 0 14.78 16.974 30.134
119 1 0 1.62 12.587 6.007
120 1 0 8.2 8.2 32.327
121 1 0 34.52 16.974 12.587
122 1 0 14.78 27.94 30.134
123 1 0 16.974 6.007 8.2
124 1 0 21.36 14.78 12.587
125 1 0 32.327 32.327 27.94
126 1 0 8.2 14.78 19.167
127 1 0 25.747 12.587 14.78
128 1 0 34.52 34.52 14.78
129 1 0 10.394 34.52 27.94
130 1 0 32.327 6.007 3.813
131 1 0 23.554 3.813 10.394
132 1 0 1.62 12.587 32.327
133 1 0 23.554 12.587 30.134
134 1 0 27.94 32.327 14.78
135 1 0 19.167 1.62 10.394
136 1 0 12.587 8.2 12.587
137 1 0 8.2 27.94 16.974
138 1 0 23.554 27.94 3.813
139 1 0 25.747 1.62 25.747
140 1 0 6.007 25.747 30.134
141 1 0 12.587 27.94 12.587
142 1 0 34.52 34.52 27.94
143 1 0 6.007 16.974 27.94
144 1 0 10.394 21.36 14.78
145 1 0 8.2 19.167 16.974
146 1 0 16.974 1.62 16.974
147 1 0 30.134 25.747 34.52
148 1 0 34.52 6.007 23.554
149 1 0 23.554 34.52 3.813
150 1 0 14.78 3.813 6.007
151 1 0 8.2 34.52 8.2
152 1 0 8.2 16.974 19.167
153 1 0 14.78 27.94 25.747
154 1 0 14.78 14.78 12.587
155 1 0 3.813 27.94 32.327
156 1 0 3.813 6.007 19.167
157 1 0 12.587 10.394 3.813
158 1 0 8.2 32.327 1.62
159 1 0 32.327 1.62 32.327
160 1 0 12.587 34.52 6.007
161 1 0 21.36 14.78 21.36
162 1 0 3.813 16.974 32.327
163 1 0 21.36 8.2 27.94
164 1 0 19.167 12.587 3.813
165 1 0 30.134 30.134 27.94
166 1 0 10.394 6.007 10.394
167 1 0 14.78 19.167 23.554
168 1 0 10.394 34.52 32.327
169 1 0 6.007 12.587 3.813
170 1 0 16.974 25.747 30.134
171 1 0 10.394 8.2 30.134
172 1 0 1.62 32.327 30.134
173 1 0 27.94 10.394 6.007
174 1 0 14.78 8.2 21.36
175 1 0 3.813 10.394 34.52
176 1 0 23.554 8.2 16.974
177 1 0 27.94 14.78 19.167
178 1 0 8.2 34.52 3.813
179 1 0 30.134 12.587 1.62
180 1 0 30.134 8.2 6.007
181 1 0 32.327 10.394 8.2
182 1 0 34.52 30.134 8.2
183 1 0 16.974 32.327 30.134
184 1 0 1.62 23.554 16.974
185 1 0 32.327 19.167 21.36
186 1 0 14.78 27.94 21.36
187 1 0 23.554 25.747 32.327
188 1 0 30.134 16.974 14.78
189 1 0 30.134 23.554 14.78
190 1 0 1.62 23.554 14.78
191 1 0 27.94 27.94 23.554
192 1 0 19.167 19.167 6.007
193 1 0 21.36 34.52 19.167
194 1 0 1.62 3.813 34.52
195 1 0 16.974 14.78 14.78
196 1 0 8.2 3.813 16.974
197 1 0 14.78 8.2 12.587
198 1 0 34.52 1.62 14.78
199 1 0 23.554 34.52 27.94
200 1 0 10.394 3.813 3.813
201 1 0 16.974 12.587 6.007
202 1 0 1.62 19.167 14.78
203 1 0 27.94 21.36 21.36
204 1 0 25.747 23.554 3.813
205 1 0 25.747 3.813 10.394
206 1 0 3.813 10.394 25.747
207 1 0 6.007 8.2 34.52
208 1 0 21.36 12.587 1.62
209 1 0 21.36 27.94 25.747
210 1 0 25.747 3.813 8.2
211 1 0 10.394 21.36 32.327
212 1 0 6.007 1.62 1.62
213 1 0 10.394 3.813 25.747
214 1 0 32.327 34.52 10.394
215 1 0 21.36 12.587 14.78
216 1 0 16.974 27.94 34.52
217 1 0 34.52 3.813 1.62
218 1 0 3.813 32.327 30.134
219 1 0 14.78 10.394 3.813
220 1 0 14.78 10.394 12.587
221 1 0 30.134 1.62 8.2
222 1 0 16.974 34.52 21.36
223 1 0 34.52 19.167 21.36
224 1 0 30.134 30.134 14.78
225 1 0 12.587 19.167 25.747
226 1 0 30.134 10.394 19.167
227 1 0 12.587 32.327 10.394
228 1 0 19.167 14.78 25.747
229 1 0 8.2 10.394 25.747
230 1 0 19.167 32.327 6.007
231 1 0 8.2 25.747 6.007
232 1 0 34.52 25.747 6.007
233 1 0 6.007 12.587 25.747
234 1 0 1.62 21.36 6.007
235 1 0 14.78 27.94 14.78
236 1 0 25.747 8.2 27.94
237 1 0 25.747 8.2 12.587
238 1 0 1.62 27.94 8.2
239 1 0 3.813 8.2 12.587
240 1 0 10.394 8.2 6.007
241 1 0 3.813 14.78 32.327
242 1 0 25.747 30.134 14.78
243 1 0 27.94 25.747 34.52
244 1 0 16.974 3.813 6.007
245 1 0 10.394 19.167 1.62
246 1 0 21.36 27.94 32.327
247 1 0 1.62 30.134 14.78
248 1 0 27.94 14.78 21.36
249 1 0 14.78 19.167 34.52
250 1 0 19.167 30.134 6.007
251 1 0 16.974 6.007 34.52
252 1 0 6.007 10.394 21.36
253 1 0 27.94 34.52 30.134
254 1 0 27.94 6.007 8.2
255 1 0 34.52 30.134 10.394
256 1 0 27.94 3.813 3.813
257 1 0 30.134 21.36 6.007
258 1 0 14.78 34.52 3.813
259 1 0 12.587 16.974 3.813
260 1 0 12.587 1.62 25.747
261 1 0 34.52 1.62 34.52
262 1 0 34.52 25.747 3.813
263 1 0 21.36 1.62 27.94
264 1 0 21.36 3.813 1.62
265 1 0 10.394 10.394 12.587
266 1 0 14.78 30.134 14.78
267 1 0 27.94 34.52 14.78
268 1 0 10.394 34.52 23.554
269 1 0 19.167 21.36 1.62
270 1 0 1.62 8.2 3.813
271 1 0 34.52 8.2 32.327
272 1 0 6.007 14.78 34.52
273 1 0 1.62 25.747 34.52
274 1 0 14.78 6.007 27.94
275 1 0 23.554 6.007 32.327
276 1 0 27.94 19.167 25.747
277 1 0 12.587 10.394 34.52
278 1 0 25.747 1.62 12.587
279 1 0 12.587 6.007 3.813
280 1 0 16.974 8.2 25.747
281 1 0 16.974 21.36 1.62
282 1 0 30.134 16.974 19.167
283 1 0 1.62 25.747 30.134
284 1 0 8.2 8.2 25.747
285 1 0 19.167 23.554 14.78
286 1 0 25.747 6.007 12.587
287 1 0 32.327 30.134 21.36
288 1 0 34.52 25.747 25.747
289 1 0 32.327 10.394 25.747
290 1 0 27.94 19.167 8.2
291 1 0 27.94 8.2 1.62
292 1 0 32.327 3.813 8.2
293 1 0 16.974 14.78 8.2
294 1 0 23.554 25.747 34.52
295 1 0 21.36 14.78 8.2
296 1 0 10.394 3.813 19.167
297 1 0 25.747 1.62 30.134
298 1 0 25.747 6.007 14.78
299 1 0 32.327 14.78 8.2
300 1 0 34.52 19.167 34.52
301 1 0 3.813 23.554 3.813
302 1 0 1.62 10.394 3.813
303 1 0 3.813 3.813 34.52
304 1 0 23.554 30.134 21.36
305 1 0 14.78 1.62 21.36
306 1 0 6.007 16.974 19.167
307 1 0 14.78 3.813 27.94
308 1 0 3.813 3.813 16.974
309 1 0 1.62 16.974 8.2
310 1 0 27.94 23.554 23.554
311 1 0 34.52 25.747 8.2
312 1 0 30.134 16.974 8.2
313 1 0 10.394 12.587 12.587
314 1 0 21.36 1.62 3.813
315 1 0 12.587 8.2 10.394
316 1 0 30.134 10.394 16.974
317 1 0 3.813 34.52 32.327
318 1 0 32.327 8.2 8.2
319 1 0 3.813 6.007 14.78
320 1 0 1.62 16.974 34.52
321 1 0 32.327 30.134 25.747
322 1 0 21.36 16.974 14.78
323 1 0 34.52 1.62 6.007
324 1 0 30.134 8.2 10.394
325 1 0 3.813 34.52 12.587
326 1 0 23.554 30.134 30.134
327 1 0 23.554 27.94 19.167
328 1 0 25.747 27.94 3.813
329 1 0 32.327 12.587 34.52
330 1 0 10.394 14.78 27.94
331 1 0 21.36 1.62 25.747
332 1 0 3.813 30.134 3.813
333 1 0 14.78 14.78 16.974
334 1 0 16.974 25.747 19.167
335 1 0 34.52 10.394 21.36
336 1 0 1.62 19.167 21.36
337 1 0 10.394 32.327 32.327
338 1 0 10.394 6.007 34.52
339 1 0 10.394 23.554 30.134
340 1 0 1.62 1.62 23.554
341 1 0 19.167 3.813 23.554
342 1 0 10.394 12.587 14.78
343 1 0 8.2 21.36 10.394
344 1 0 19.167 16.974 16.974
345 1 0 6.007 19.167 8.2
346 1 0 12.587 10.394 25.747
347 1 0 16.974 32.327 1.62
348 1 0 27.94 12.587 27.94
349 1 0 10.394 25.747 6.007
350 1 0 25.747 27.94 21.36
351 1 0 14.78 30.134 12.587
352 1 0 21.36 10.394 25.747
353 1 0 21.36 23.554 10.394
354 1 0 21.36 34.52 14.78
355 1 0 6.007 21.36 12.587
356 1 0 21.36 25.747 25.747
357 1 0 3.813 14.78 30.134
358 1 0 8.2 23.554 19.167
359 1 0 3.813 27.94 34.52
360 1 0 32.327 14.78 25.747
361 1 0 25.747 8.2 25.747
362 1 0 19.167 16.974 34.52
363 1 0 32.327 25.747 21.36
364 1 0 19.167 32.327 21.36
365 1 0 16.974 23.554 16.974
366 1 0 32.327 3.813 16.974
367 1 0 32.327 10.394 32.327
368 1 0 8.2 23.554 34.52
369 1 0 1.62 32.327 16.974
370 1 0 19.167 12.587 30.134
371 1 0 1.62 23.554 19.167
372 1 0 27.94 12.587 3.813
373 1 0 34.52 10.394 10.394
374 1 0 8.2 21.36 8.2
375 1 0 25.747 34.52 14.78
376 1 0 19.167 23.554 8.2
377 1 0 16.974 8.2 1.62
378 1 0 27.94 19.167 23.554
379 1 0 23.554 19.167 27.94
380 1 0 19.167 6.007 8.2
381 1 0 32.327 30.134 14.78
382 1 0 21.36 14.78 23.554
383 1 0 3.813 27.94 8.2
384 1 0 3.813 32.327 19.167
385 1 0 16.974 19.167 8.2
386 1 0 25.747 25.747 34.52
387 1 0 23.554 21.36 21.36
388 1 0 21.36 10.394 6.007
389 1 0 6.007 1.62 23.554
390 1 0 23.554 8.2 30.134
391 1 0 30.134 1.62 1.62
392 1 0 1.62 6.007 6.007
393 1 0 3.813 12.587 21.36
394 1 0 8.2 30.134 14.78
395 1 0 12.587 6.007 6.007
396 1 0 10.394 25.747 12.587
397 1 0 23.554 25.747 3.813
398 1 0 23.554 14.78 10.394
399 1 0 3.813 3.813 3.813
400 1 0 3.813 23.554 6.007
401 1 0 19.167 34.52 1.62
402 1 0 3.813 6.007 12.587
403 1 0 21.36 12.587 25.747
404 1 0 19.167 21.36 16.974
405 1 0 1.62 19.167 10.394
406 1 0 21.36 27.94 21.36
407 1 0 23.554 23.554 25.747
408 1 0 21.36 12.587 12.587
409 1 0 21.36 32.327 16.974
410 1 0 32.327 23.554 10.394
411 1 0 10.394 27.94 34.52
412 1 0 30.134 3.813 1.62
413 1 0 6.007 32.327 12.587
414 1 0 12.587 25.747 3.813
415 1 0 6.007 21.36 34.52
416 1 0 10.394 30.134 14.78
417 1 0 8.2 1.62 6.007
418 1 0 30.134 6.007 6.007
419 1 0 23.554 19.167 8.2
420 1 0 32.327 16.974 12.587
421 1 0 16.974 1.62 19.167
422 1 0 27.94 1.62 30.134
423 1 0 12.587 19.167 30.134
424 1 0 34.52 8.2 14.78
425 1 0 8.2 27.94 1.62
426 1 0 21.36 3.813 34.52
427 1 0 16.974 6.007 12.587
428 1 0 30.134 21.36 12.587
429 1 0 12.587 8.2 30.134
430 1 0 30.134 3.813 21.36
431 1 0 27.94 32.327 27.94
432 1 0 25.747 12.587 16.974
433 1 0 16.974 21.36 14.78
434 1 0 23.554 21.36 1.62
435 1 0 6.007 1.62 25.747
436 1 0 14.78 25.747 16.974
437 1 0 34.52 8.2 30.134
438 1 0 6.007 3.813 32.327
439 1 0 32.327 10.394 19.167
440 1 0 34.52 1.62 30.134
441 1 0 10.394 21.36 12.587
442 1 0 32.327 30.134 19.167
443 1 0 16.974 14.78 21.36
444 1 0 32.327 3.813 12.587
445 1 0 21.36 6.007 1.62
446 1 0 30.134 3.813 10.394
447 1 0 30.134 32.327 14.78
448 1 0 16.974 14.78 3.813
449 1 0 30.134 21.36 23.554
450 1 0 32.327 23.554 12.587
451 1 0 34.52 14.78 32.327
452 1 0 27.94 1.62 34.52
453 1 0 25.747 32.327 3.813
454 1 0 32.327 27.94 12.587
455 1 0 1.62 12.587 8.2
456 1 0 25.747 16.974 23.554
457 1 0 34.52 32.327 1.62
458 1 0 34.52 16.974 25.747
459 1 0 16.974 3.813 25.747
460 1 0 16.974 16.974 8.2
461 1 0 25.747 8.2 21.36
462 1 0 10.394 16.974 16.974
463 1 0 34.52 12.587 30.134
464 1 0 25.747 19.167 16.974
465 1 0 6.007 23.554 19.167
466 1 0 32.327 6.007 30.134
467 1 0 21.36 6.007 6.007
468 1 0 32.327 25.747 6.007
469 1 0 34.52 25.747 30.134
470 1 0 34.52 1.62 19.167
471 1 0 30.134 32.327 16.974
472 1 0 16.974 14.78 34.52
473 1 0 10.394 34.52 30.134
474 1 0 16.974 19.167 34.52
475 1 0 12.587 27.94 32.327
476 1 0 34.52 14.78 8.2
477 1 0 25.747 3.813 23.554
478 1 0 3.813 21.36 23.554
479 1 0 3.813 6.007 6.007
480 1 0 10.394 25.747 10.394
481 1 0 32.327 23.554 6.007
482 1 0 27.94 14.78 12.587
483 1 0 12.587 30.134 14.78
484 1 0 3.813 25.747 25.747
485 1 0 8.2 10.394 23.554
486 1 0 19.167 12.587 25.747
487 1 0 34.52 34.52 23.554
488 1 0 3.813 10.394 14.78
489 1 0 8.2 6.007 25.747
490 1 0 6.007 32.327 30.134
491 1 0 3.813 21.36 27.94
492 1 0 14.78 12.587 16.974
493 1 0 34.52 19.167 10.394
494 1 0 27.94 32.327 25.747
495 1 0 3.813 32.327 6.007
496 1 0 10.394 10.394 25.747
497 1 0 21.36 3.813 8.2
498 1 0 27.94 21.36 19.167
499 1 0 23.554 34.52 23.554
500 1 0 6.007 6.007 21.36
501 1 0 14.78 6.007 34.52
502 1 0 16.974 21.36 30.134
503 1 0 30.134 10.394 6.007
504 1 0 16.974 16.974 30.134
505 1 0 32.327 19.167 23.554
506 1 0 8.2 1.62 12.587
507 1 0 34.52 23.554 14.78
508 1 0 19.167 6.007 32.327
509 1 0 23.554 8.2 34.52
510 1 0 30.134 25.747 25.747
511 1 0 8.2 16.974 12.587
512 1 0 21.36 8.2 34.52
513 1 0 6.007 23.554 3.813
514 1 0 3.813 12.587 19.167
515 1 0 19.167 19.167 27.94
516 1 0 10.394 30.134 3.813
517 1 0 1.62 21.36 14.78
518 1 0 6.007 34.52 8.2
519 1 0 8.2 1.62 10.394
520 1 0 12.587 3.813 19.167
521 1 0 27.94 3.813 30.134
522 1 0 10.394 32.327 23.554
523 1 0 32.327 8.2 19.167
524 1 0 14.78 25.747 27.94
525 1 0 19.167 1.62 19.167
526 1 0 21.36 30.134 19.167
527 1 0 3.813 6.007 10.394
528 1 0 8.2 12.587 21.36
529 1 0 30.134 14.78 19.167
530 1 0 32.327 16.974 8.2
531 1 0 30.134 30.134 8.2
532 1 0 30.134 8.2 30.134
533 1 0 1.62 32.327 34.52
534 1 0 21.36 25.747 3.813
535 1 0 21.36 10.394 12.587
536 1 0 3.813 14.78 6.007
537 1 0 3.813 30.134 14.78
538 1 0 19.167 10.394 12.587
539 1 0 21.36 19.167 30.134
540 1 0 12.587 21.36 12.587
541 1 0 3.813 23.554 10.394
542 1 0 19.167 8.2 25.747
543 1 0 1.62 10.394 19.167
544 1 0 12.587 1.62 8.2
545 1 0 19.167 3.813 30.134
546 1 0 25.747 10.394 27.94
547 1 0 21.36 16.974 27.94
548 1 0 16.974 30.134 30.134
549 1 0 34.52 30.134 30.134
550 1 0 14.78 14.78 25.747
551 1 0 19.167 27.94 12.587
552 1 0 16.974 23.554 23.554
553 1 0 25.747 23.554 10.394
554 1 0 19.167 25.747 6.007
555 1 0 1.62 21.36 32.327
556 1 0 10.394 25.747 8.2
557 1 0 10.394 16.974 14.78
558 1 0 10.394 23.554 21.36
559 1 0 14.78 27.94 12.587
560 1 0 16.974 6.007 23.554
561 1 0 32.327 10.394 3.813
562 1 0 27.94 34.52 3.813
563 1 0 23.554 14.78 32.327
564 1 0 34.52 34.52 30.134
565 1 0 10.394 16.974 1.62
566 1 0 27.94 25.747 1.62
567 1 0 21.36 3.813 10.394
568 1 0 23.554 3.813 25.747
569 1 0 12.587 12.587 14.78
570 1 0 34.52 16.974 14.78
571 1 0 30.134 19.167 1.62
572 1 0 10.394 27.94 10.394
573 1 0 34.52 34.52 25.747
574 1 0 6.007 25.747 8.2
575 1 0 8.2 10.394 10.394
576 1 0 1.62 3.813 30.134
577 1 0 34.52 19.167 3.813
578 1 0 16.974 27.94 27.94
579 1 0 23.554 1.62 34.52
580 1 0 19.167 34.52 27.94
581 1 0 30.134 34.52 34.52
582 1 0 32.327 32.327 12.587
583 1 0 32.327 14.78 32.327
584 1 0 30.134 32.327 34.52
585 1 0 27.94 19.167 12.587
586 1 0 16.974 14.78 23.554
587 1 0 8.2 23.554 1.62
588 1 0 8.2 1.62 30.134
589 1 0 6.007 14.78 12.587
590 1 0 6.007 14.78 32.327
591 1 0 3.813 23.554 1.62
592 1 0 27.94 6.007 14.78
593 1 0 10.394 3.813 6.007
594 1 0 1.62 10.394 32.327
595 1 0 3.813 3.813 25.747
596 1 0 16.974 3.813 3.813
597 1 0 27.94 23.554 27.94
598 1 0 8.2 32.327 25.747
599 1 0 19.167 12.587 14.78
600 1 0 19.167 34.52 8.2
601 1 0 23.554 12.587 14.78
602 1 0 25.747 21.36 8.2
603 1 0 21.36 23.554 16.974
604 1 0 30.134 23.554 27.94
605 1 0 1.62 19.167 16.974
606 1 0 19.167 23.554 19.167
607 1 0 32.327 16.974 27.94
608 1 0 12.587 21.36 3.813
609 1 0 25.747 19.167 32.327
610 1 0 8.2 34.52 1.62
611 1 0 1.62 8.2 25.747
612 1 0 27.94 30.134 10.394
613 1 0 12.587 27.94 6.007
614 1 0 10.394 3.813 1.62
615 1 0 10.394 6.007 3.813
616 1 0 25.747 10.394 21.36
617 1 0 3.813 19.167 32.327
618 1 0 16.974 19.167 3.813
619 1 0 12.587 23.554 6.007
620 1 0 19.167 10.394 34.52
621 1 0 23.554 14.78 19.167
622 1 0 16.974 3.813 23.554
623 1 0 14.78 19.167 16.974
624 1 0 34.52 1.62 23.554
625 1 0 34.52 3.813 10.394
626 1 0 32.327 34.52 12.587
627 1 0 19.167 6.007 23.554
628 1 0 25.747 30.134 19.167
629 1 0 25.747 21.36 32.327
630 1 0 23.554 23.554 14.78
631 1 0 34.52 21.36 10.394
632 1 0 12.587 1.62 27.94
633 1 0 19.167 8.2 27.94
634 1 0 1.62 30.134 10.394
635 1 0 27.94 8.2 19.167
636 1 0 8.2 8.2 30.134
637 1 0 6.007 30.134 21.36
638 1 0 34.52 14.78 27.94
639 1 0 21.36 16.974 30.134
640 1 0 16.974 12.587 14.78
641 1 0 25.747 25.747 3.813
642 1 0 14.78 10.394 21.36
643 1 0 6.007 21.36 3.813
644 1 0 3.813 1.62 8.2
645 1 0 32.327 10.394 23.554
646 1 0 30.134 27.94 19.167
647 1 0 12.587 21.36 32.327
648 1 0 14.78 30.134 19.167
649 1 0 3.813 21.36 21.36
650 1 0 14.78 19.167 21.36
651 1 0 21.36 10.394 21.36
652 1 0 12.587 16.974 25.747
653 1 0 19.167 1.62 32.327
654 1 0 25.747 30.134 27.94
655 1 0 6.007 30.134 30.134
656 1 0 10.394 3.813 23.554
657 1 0 16.974 23.554 32.327
658 1 0 8.2 12.587 8.2
659 1 0 30.134 30.134 25.747
660 1 0 34.52 27.94 16.974
661 1 0 19.167 1.62 14.78
662 1 0 34.52 6.007 19.167
663 1 0 3.813 1.62 10.394
664 1 0 30.134 14.78 6.007
665 1 0 6.007 32.327 34.52
666 1 0 21.36 19.167 21.36
667 1 0 1.62 6.007 14.78
668 1 0 25.747 34.52 19.167
669 1 0 6.007 16.974 21.36
670 1 0 34.52 30.134 12.587
671 1 0 34.52 30.134 14.78
672 1 0 3.813 23.554 32.327
673 1 0 1.62 23.554 8.2
674 1 0 6.007 8.2 30.134
675 1 0 1.62 23.554 10.394
676 1 0 8.2 3.813 14.78
677 1 0 30.134 10.394 12.587
678 1 0 19.167 8.2 19.167
679 1 0 34.52 8.2 19.167
680 1 0 30.134 6.007 8.2
681 1 0 12.587 1.62 30.134
682 1 0 30.134 30.134 19.167
683 1 0 27.94 14.78 30.134
684 1 0 34.52 6.007 6.007
685 1 0 16.974 16.974 32.327
686 1 0 21.36 27.94 23.554
687 1 0 23.554 12.587 6.007
688 1 0 21.36 16.974 23.554
689 1 0 14.78 6.007 3.813
690 1 0 19.167 12.587 8.2
691 1 0 10.394 14.78 23.554
692 1 0 6.007 30.134 6.007
693 1 0 3.813 25.747 1.62
694 1 0 27.94 27.94 16.974
695 1 0 3.813 23.554 16.974
696 1 0 12.587 10.394 14.78
697 1 0 30.134 23.554 1.62
698 1 0 23.554 30.134 23.554
699 1 0 19.167 16.974 27.94
700 1 0 34.52 6.007 8.2
701 1 0 14.78 34.52 25.747
702 1 0 21.36 16.974 12.587
703 1 0 10.394 12.587 10.394
704 1 0 23.554 3.813 16.974
705 1 0 19.167 16.974 19.167
706 1 0 30.134 23.554 8.2
707 1 0 34.52 32.327 16.974
708 1 0 27.94 21.36 14.78
709 1 0 16.974 14.78 12.587
710 1 0 25.747 32.327 19.167
711 1 0 14.78 10.394 14.78
712 1 0 1.62 34.52 27.94
713 1 0 10.394 25.747 23.554
714 1 0 6.007 23.554 27.94
715 1 0 27.94 16.974 19.167
716 1 0 21.36 30.134 10.394
717 1 0 25.747 21.36 21.36
718 1 0 6.007 6.007 10.394
719 1 0 12.587 6.007 32.327
720 1 0 21.36 6.007 3.813
721 1 0 27.94 14.78 1.62
722 1 0 12.587 25.747 34.52
723 1 0 25.747 14.78 10.394
724 1 0 32.327 6.007 10.394
725 1 0 8.2 34.52 16.974
726 1 0 32.327 6.007 1.62
727 1 0 19.167 8.2 10.394
728 1 0 12.587 19.167 6.007
729 1 0 19.167 14.78 34.52
730 1 0 1.62 14.78 19.167
731 1 0 23.554 30.134 1.62
732 1 0 10.394 30.134 32.327
733 1 0 27.94 3.813 14.78
734 1 0 6.007 19.167 1.62
735 1 0 21.36 32.327 21.36
736 1 0 12.587 30.134 23.554
737 1 0 3.813 6.007 16.974
738 1 0 8.2 25.747 32.327
739 1 0 21.36 25.747 30.134
740 1 0 25.747 8.2 30.134
741 1 0 34.52 25.747 21.36
742 1 0 14.78 23.554 21.36
743 1 0 10.394 34.52 1.62
744 1 0 3.813 19.167 3.813
745 1 0 19.167 32.327 8.2
746 1 0 25.747 3.813 21.36
747 1 0 23.554 6.007 21.36
748 1 0 19.167 8.2 14.78
749 1 0 21.36 23.554 14.78
750 1 0 27.94 1.62 1.62
751 1 0 14.78 14.78 6.007
752 1 0 27.94 23.554 21.36
753 1 0 23.554 1.62 25.747
754 1 0 30.134 21.36 3.813
755 1 0 32.327 19.167 32.327
756 1 0 6.007 1.62 21.36
757 1 0 10.394 27.94 1.62
758 1 0 10.394 19.167 34.52
759 1 0 1.62 27.94 32.327
760 1 0 34.52 34.52 3.813
761 1 0 19.167 21.36 8.2
762 1 0 30.134 21.36 32.327
763 1 0 34.52 3.813 6.007
764 1 0 14.78 10.394 19.167
765 1 0 34.52 16.974 1.62
766 1 0 32.327 30.134 30.134
767 1 0 30.134 34.52 27.94
768 1 0 3.813 25.747 10.394
769 1 0 32.327 27.94 6.007
770 1 0 12.587 1.62 10.394
771 1 0 25.747 21.36 14.78
772 1 0 14.78 23.554 19.167
773 1 0 21.36 3.813 3.813
774 1 0 21.36 14.78 1.62
775 1 0 6.007 30.134 19.167
776 1 0 30.134 1.62 14.78
777 1 0 8.2 1.62 23.554
778 1 0 10.394 10.394 10.394
779 1 0 34.52 21.36 19.167
780 1 0 19.167 25.747 21.36
781 1 0 3.813 27.94 10.394
782 1 0 23.554 21.36 12.587
783 1 0 8.2 16.974 30.134
784 1 0 25.747 34.52 8.2
785 1 0 3.813 8.2 14.78
786 1 0 23.554 34.52 32.327
787 1 0 8.2 6.007 3.813
788 1 0 10.394 12.587 32.327
789 1 0 21.36 10.394 19.167
790 1 0 12.587 3.813 27.94
791 1 0 16.974 12.587 27.94
792 1 0 14.78 12.587 32.327
793 1 0 8.2 19.167 27.94
794 1 0 1.62 1.62 32.327
795 1 0 32.327 10.394 34.52
796 1 0 25.747 3.813 25.747
797 1 0 14.78 30.134 23.554
798 1 0 8.2 10.394 21.36
799 1 0 16.974 32.327 25.747
800 1 0 25.747 14.78 12.587
801 2 0 21.36 14.78 10.394
802 2 0 12.587 1.62 23.554
803 2 0 3.813 27.94 6.007
804 2 0 10.394 6.007 16.974
805 2 0 34.52 19.167 12.587
806 2 0 10.394 10.394 8.2
807 2 0 6.007 27.94 34.52
808 2 0 30.134 25.747 23.554
809 2 0 19.167 30.134 12.587
810 2 0 25.747 12.587 10.394
811 2 0 1.62 23.554 12.587
812 2 0 1.62 8.2 16.974
813 2 0 12.587 27.94 3.813
814 2 0 21.36 32.327 19.167
815 2 0 23.554 12.587 1.62
816 2 0 27.94 23.554 12.587
817 2 0 6.007 16.974 16.974
818 2 0 27.94 19.167 21.36
819 2 0 23.554 3.813 34.52
820 2 0 12.587 23.554 1.62
821 2 0 6.007 25.747 16.974
822 2 0 12.587 34.52 10.394
823 2 0 12.587 27.94 21.36
824 2 0 3.813 1.62 1.62
825 2 0 27.94 14.78 16.974
826 2 0 14.78 19.167 10.394
827 2 0 21.36 34.52 27.94
828 2 0 16.974 34.52 23.554
829 2 0 3.813 32.327 25.747
830 2 0 12.587 30.134 19.167
831 2 0 16.974 32.327 27.94
832 2 0 32.327 16.974 19.167
833 2 0 30.134 25.747 10.394
834 2 0 27.94 6.007 32.327
835 2 0 1.62 12.587 12.587
836 2 0 23.554 14.78 14.78
837 2 0 10.394 10.394 21.36
838 2 0 30.134 3.813 14.78
839 2 0 21.36 19.167 8.2
840 2 0 6.007 12.587 6.007
841 2 0 3.813 19.167 25.747
842 2 0 23.554 27.94 16.974
843 2 0 34.52 14.78 10.394
844 2 0 12.587 27.94 19.167
845 2 0 30.134 6.007 23.554
846 2 0 23.554 16.974 12.587
847 2 0 6.007 12.587 19.167
848 2 0 14.78 27.94 23.554
849 2 0 19.167 30.134 16.974
850 2 0 16.974 10.394 25.747
851 2 0 3.813 14.78 23.554
852 2 0 27.94 10.394 34.52
853 2 0 30.134 16.974 34.52
854 2 0 10.394 23.554 25.747
855 2 0 3.813 8.2 34.52
856 2 0 23.554 30.134 34.52
857 2 0 14.78 1.62 14.78
858 2 0 12.587 25.747 12.587
859 2 0 12.587 27.94 16.974
860 2 0 6.007 8.2 1.62
861 2 0 25.747 8.2 19.167
862 2 0 10.394 6.007 23.554
863 2 0 27.94 27.94 3.813
864 2 0 12.587 6.007 25.747
865 2 0 16.974 32.327 32.327
866 2 0 3.813 27.94 27.94
867 2 0 16.974 32.327 3.813
868 2 0 32.327 27.94 3.813
869 2 0 14.78 6.007 25.747
870 2 0 6.007 27.94 1.62
871 2 0 23.554 16.974 23.554
872 2 0 21.36 12.587 30.134
873 2 0 27.94 30.134 32.327
874 2 0 12.587 21.36 19.167
875 2 0 30.134 25.747 14.78
876 2 0 32.327 3.813 19.167
877 2 0 16.974 30.134 8.2
878 2 0 25.747 16.974 16.974
879 2 0 8.2 3.813 12.587
880 2 0 3.813 8.2 16.974
881 2 0 12.587 14.78 14.78
882 2 0 21.36 19.167 27.94
883 2 0 1.62 14.78 25.747
884 2 0 8.2 6.007 8.2
885 2 0 21.36 30.134 27.94
886 2 0 32.327 8.2 16.974
887 2 0 1.62 21.36 19.167
888 2 0 1.62 16.974 19.167
889 2 0 12.587 23.554 23.554
890 2 0 32.327 27.94 27.94
891 2 0 32.327 27.94 19.167
892 2 0 8.2 14.78 23.554
893 2 0 12.587 30.134 12.587
894 2 0 19.167 19.167 25.747
895 2 0 34.52 19.167 8.2
896 2 0 16.974 16.974 23.554
897 2 0 8.2 34.52 32.327
898 2 0 10.394 10.394 3.813
899 2 0 12.587 14.78 1.62
900 2 0 23.554 3.813 6.007
901 2 0 6.007 6.007 25.747
902 2 0 14.78 30.134 6.007
903 2 0 27.94 32.327 32.327
904 2 0 34.52 10.394 23.554
905 2 0 30.134 21.36 16.974
906 2 0 6.007 10.394 1.62
907 2 0 23.554 32.327 25.747
908 2 0 30.134 8.2 12.587
909 2 0 30.134 12.587 10.394
910 2 0 16.974 23.554 10.394
911 2 0 19.167 3.813 10.394
912 2 0 30.134 12.587 16.974
913 2 0 23.554 16.974 25.747
914 2 0 1.62 34.52 12.587
915 2 0 12.587 32.327 34.52
916 2 0 25.747 16.974 34.52
917 2 0 34.52 32.327 14.78
918 2 0 19.167 21.36 25.747
919 2 0 16.974 12.587 10.394
920 2 0 25.747 6.007 10.394
921 2 0 8.2 27.94 6.007
922 2 0 25.747 23.554 14.78
923 2 0 30.134 16.974 6.007
924 2 0 3.813 34.52 16.974
925 2 0 16.974 1.62 10.394
926 2 0 16.974 1.62 34.52
927 2 0 10.394 34.52 21.36
928 2 0 1.62 27.94 19.167
929 2 0 34.52 6.007 16.974
930 2 0 23.554 8.2 19.167
931 2 0 12.587 23.554 16.974
932 2 0 3.813 34.52 1.62
933 2 0 25.747 34.52 3.813
934 2 0 32.327 12.587 30.134
935 2 0 32.327 12.587 6.007
936 2 0 27.94 6.007 23.554
937 2 0 32.327 32.327 1.62
938 2 0 8.2 14.78 21.36
939 2 0 23.554 16.974 32.327
940 2 0 16.974 1.62 8.2
941 2 0 32.327 1.62 25.747
942 2 0 12.587 14.78 21.36
943 2 0 8.2 21.36 3.813
944 2 0 23.554 19.167 16.974
945 2 0 3.813 32.327 16.974
946 2 0 6.007 12.587 1.62
947 2 0 34.52 10.394 30.134
948 2 0 23.554 14.78 34.52
949 2 0 8.2 32.327 12.587
950 2 0 16.974 34.52 8.2
951 2 0 23.554 16.974 16.974
952 2 0 19.167 21.36 14.78
953 2 0 19.167 8.2 8.2
954 2 0 21.36 25.747 32.327
955 2 0 6.007 1.62 19.167
956 2 0 23.554 6.007 23.554
957 2 0 3.813 16.974 27.94
958 2 0 16.974 34.52 27.94
959 2 0 19.167 6.007 25.747
960 2 0 8.2 19.167 12.587
961 2 0 10.394 19.167 3.813
962 2 0 23.554 1.62 30.134
963 2 0 23.554 32.327 34.52
964 2 0 10.394 8.2 32.327
965 2 0 10.394 19.167 16.974
966 2 0 8.2 10.394 3.813
967 2 0 12.587 19.167 19.167
968 2 0 14.78 32.327 16.974
969 2 0 12.587 8.2 16.974
970 2 0 23.554 21.36 34.52
971 2 0 8.2 21.36 12.587
972 2 0 16.974 3.813 19.167
973 2 0 25.747 21.36 34.52
974 2 0 12.587 34.52 1.62
975 2 0 34.52 27.94 32.327
976 2 0 1.62 6.007 21.36
977 2 0 23.554 12.587 32.327
978 2 0 3.813 19.167 19.167
979 2 0 21.36 14.78 25.747
980 2 0 6.007 32.327 3.813
981 2 0 14.78 21.36 8.2
982 2 0 25.747 30.134 25.747
983 2 0 19.167 25.747 12.587
984 2 0 23.554 27.94 21.36
985 2 0 12.587 1.62 14.78
986 2 0 1.62 21.36 25.747
987 2 0 12.587 21.36 30.134
988 2 0 16.974 16.974 34.52
989 2 0 1.62 8.2 1.62
990 2 0 34.52 3.813 3.813
991 2 0 27.94 8.2 8.2
992 2 0 27.94 8.2 32.327
993 2 0 3.813 10.394 3.813
994 2 0 16.974 8.2 12.587
995 2 0 12.587 32.327 23.554
996 2 0 14.78 19.167 32.327
997 2 0 12.587 3.813 1.62
998 2 0 21.36 8.2 1.62
999 2 0 30.134 14.78 30.134
1000 2 0 23.554 23.554 32.327
1001 2 0 10.394 16.974 34.52
1002 2 0 27.94 14.78 3.813
1003 2 0 30.134 32.327 12.587
1004 2 0 10.394 1.62 19.167
1005 2 0 19.167 23.554 1.62
1006 2 0 12.587 27.94 8.2
1007 2 0 16.974 3.813 14.78
1008 2 0 34.52 6.007 34.52
1009 2 0 10.394 16.974 25.747
1010 2 0 12.587 14.78 10.394
1011 2 0 27.94 1.62 6.007
1012 2 0 19.167 16.974 1.62
1013 2 0 27.94 1.62 19.167
1014 2 0 27.94 10.394 27.94
1015 2 0 30.134 10.394 14.78
1016 2 0 16.974 3.813 16.974
1017 2 0 32.327 1.62 21.36
1018 2 0 30.134 30.134 32.327
1019 2 0 19.167 16.974 8.2
1020 2 0 1.62 12.587 19.167
1021 2 0 34.52 25.747 1.62
1022 2 0 10.394 30.134 21.36
1023 2 0 30.134 34.52 3.813
1024 2 0 14.78 21.36 30.134
1025 2 0 3.813 23.554 12.587
1026 2 0 34.52 1.62 8.2
1027 2 0 14.78 32.327 1.62
1028 2 0 25.747 6.007 34.52
1029 2 0 30.134 21.36 19.167
1030 2 0 6.007 27.94 14.78
1031 2 0 30.134 8.2 34.52
1032 2 0 30.134 34.52 6.007
1033 2 0 12.587 12.587 23.554
1034 2 0 12.587 19.167 3.813
1035 2 0 16.974 30.134 14.78
1036 2 0 32.327 10.394 1.62
1037 2 0 32.327 1.62 3.813
1038 2 0 23.554 6.007 14.78
1039 2 0 30.134 12.587 14.78
1040 2 0 23.554 30.134 32.327
1041 2 0 8.2 12.587 27.94
1042 2 0 16.974 34.52 16.974
1043 2 0 6.007 19.167 30.134
1044 2 0 34.52 16.974 8.2
1045 2 0 1.62 32.327 3.813
1046 2 0 16.974 25.747 1.62
1047 2 0 8.2 6.007 1.62
1048 2 0 6.007 6.007 8.2
1049 2 0 8.2 25.747 1.62
1050 2 0 34.52 12.587 1.62
1051 2 0 23.554 32.327 8.2
1052 2 0 27.94 21.36 12.587
1053 2 0 25.747 1.62 8.2
1054 2 0 34.52 10.394 1.62
1055 2 0 25.747 6.007 30.134
1056 2 0 23.554 21.36 25.747
1057 2 0 14.78 30.134 1.62
1058 2 0 27.94 27.94 6.007
1059 2 0 34.52 12.587 10.394
1060 2 0 23.554 32.327 27.94
1061 2 0 10.394 3.813 12.587
1062 2 0 32.327 34.52 25.747
1063 2 0 21.36 8.2 14.78
1064 2 0 25.747 8.2 6.007
1065 2 0 32.327 8.2 6.007
1066 2 0 25.747 3.813 3.813
1067 2 0 32.327 27.94 14.78
1068 2 0 10.394 14.78 3.813
1069 2 0 23.554 25.747 25.747
1070 2 0 10.394 27.94 23.554
1071 2 0 10.394 12.587 23.554
1072 2 0 16.974 8.2 14.78
1073 2 0 30.134 30.134 12.587
1074 2 0 21.36 12.587 19.167
1075 2 0 23.554 3.813 8.2
1076 2 0 6.007 3.813 27.94
1077 2 0 27.94 6.007 27.94
1078 2 0 10.394 1.62 27.94
1079 2 0 10.394 12.587 1.62
1080 2 0 34.52 21.36 16.974
1081 2 0 25.747 12.587 8.2
1082 2 0 25.747 34.52 23.554
1083 2 0 27.94 27.94 25.747
1084 2 0 8.2 27.94 27.94
1085 2 0 12.587 23.554 12.587
1086 2 0 27.94 30.134 1.62
1087 2 0 23.554 3.813 21.36
1088 2 0 27.94 21.36 1.62
1089 2 0 3.813 16.974 8.2
1090 2 0 14.78 12.587 21.36
1091 2 0 3.813 14.78 3.813
1092 2 0 14.78 32.327 3.813
1093 2 0 6.007 16.974 23.554
1094 2 0 6.007 23.554 12.587
1095 2 0 27.94 6.007 1.62
1096 2 0 8.2 30.134 25.747
1097 2 0 12.587 25.747 27.94
1098 2 0 21.36 8.2 32.327
1099 2 0 8.2 30.134 3.813
1100 2 0 8.2 30.134 12.587
1101 2 0 34.52 10.394 3.813
1102 2 0 27.94 25.747 16.974
1103 2 0 32.327 10.394 12.587
1104 2 0 8.2 32.327 30.134
1105 2 0 8.2 30.134 34.52
1106 2 0 10.394 27.94 6.007
1107 2 0 30.134 6.007 1.62