#Generated From Cif

2800 atoms
0 bonds
0 angles
0 dihedrals
0 impropers
3 atom types

0 31.38728031121348 xlo xhi
0 31.38728031121348 ylo yhi
0 31.38728031121348 zlo zhi

Atoms

1 1 0 10.624 19.835 10.624
2 1 0 6.94 21.677 1.413
3 1 0 25.361 27.203 19.835
4 1 0 17.992 23.519 3.256
5 1 0 6.94 25.361 3.256
6 1 0 29.045 25.361 12.466
7 1 0 12.466 10.624 29.045
8 1 0 5.098 1.413 10.624
9 1 0 19.835 16.15 27.203
10 1 0 3.256 3.256 8.782
11 1 0 16.15 5.098 25.361
12 1 0 8.782 19.835 25.361
13 1 0 5.098 12.466 21.677
14 1 0 27.203 12.466 19.835
15 1 0 3.256 6.94 10.624
16 1 0 14.308 23.519 1.413
17 1 0 19.835 16.15 6.94
18 1 0 10.624 19.835 27.203
19 1 0 5.098 1.413 8.782
20 1 0 12.466 17.992 23.519
21 1 0 21.677 12.466 8.782
22 1 0 17.992 6.94 5.098
23 1 0 10.624 8.782 6.94
24 1 0 5.098 10.624 21.677
25 1 0 25.361 27.203 27.203
26 1 0 19.835 10.624 3.256
27 1 0 12.466 17.992 10.624
28 1 0 23.519 16.15 1.413
29 1 0 1.413 25.361 1.413
30 1 0 5.098 16.15 17.992
31 1 0 17.992 10.624 8.782
32 1 0 3.256 23.519 6.94
33 1 0 14.308 1.413 10.624
34 1 0 5.098 21.677 6.94
35 1 0 8.782 16.15 29.045
36 1 0 29.045 17.992 17.992
37 1 0 1.413 14.308 3.256
38 1 0 14.308 23.519 21.677
39 1 0 5.098 17.992 3.256
40 1 0 17.992 29.045 8.782
41 1 0 3.256 29.045 21.677
42 1 0 10.624 14.308 25.361
43 1 0 16.15 5.098 14.308
44 1 0 19.835 14.308 10.624
45 1 0 12.466 6.94 23.519
46 1 0 8.782 23.519 21.677
47 1 0 23.519 23.519 29.045
48 1 0 6.94 21.677 16.15
49 1 0 23.519 25.361 27.203
50 1 0 1.413 16.15 5.098
51 1 0 17.992 16.15 10.624
52 1 0 25.361 25.361 19.835
53 1 0 8.782 14.308 1.413
54 1 0 19.835 3.256 14.308
55 1 0 3.256 29.045 25.361
56 1 0 10.624 16.15 5.098
57 1 0 3.256 25.361 5.098
58 1 0 10.624 21.677 6.94
59 1 0 16.15 6.94 3.256
60 1 0 16.15 16.15 23.519
61 1 0 8.782 23.519 6.94
62 1 0 25.361 21.677 23.519
63 1 0 1.413 23.519 27.203
64 1 0 8.782 6.94 3.256
65 1 0 14.308 3.256 3.256
66 1 0 3.256 23.519 12.466
67 1 0 23.519 1.413 21.677
68 1 0 16.15 17.992 10.624
69 1 0 19.835 10.624 5.098
70 1 0 12.466 1.413 19.835
71 1 0 19.835 12.466 19.835
72 1 0 19.835 6.94 8.782
73 1 0 3.256 10.624 29.045
74 1 0 27.203 12.466 12.466
75 1 0 16.15 19.835 17.992
76 1 0 14.308 1.413 17.992
77 1 0 25.361 5.098 5.098
78 1 0 16.15 21.677 8.782
79 1 0 16.15 16.15 12.466
80 1 0 29.045 21.677 29.045
81 1 0 19.835 12.466 21.677
82 1 0 17.992 21.677 1.413
83 1 0 5.098 21.677 3.256
84 1 0 5.098 17.992 23.519
85 1 0 5.098 14.308 6.94
86 1 0 16.15 3.256 25.361
87 1 0 3.256 21.677 16.15
88 1 0 14.308 19.835 25.361
89 1 0 6.94 17.992 27.203
90 1 0 16.15 16.15 6.94
91 1 0 6.94 17.992 29.045
92 1 0 5.098 27.203 25.361
93 1 0 19.835 17.992 29.045
94 1 0 1.413 10.624 10.624
95 1 0 5.098 12.466 10.624
96 1 0 6.94 5.098 5.098
97 1 0 14.308 6.94 10.624
98 1 0 3.256 12.466 1.413
99 1 0 5.098 17.992 19.835
100 1 0 17.992 1.413 8.782
101 1 0 21.677 23.519 12.466
102 1 0 10.624 3.256 8.782
103 1 0 14.308 23.519 14.308
104 1 0 23.519 8.782 1.413
105 1 0 23.519 6.94 5.098
106 1 0 14.308 23.519 25.361
107 1 0 10.624 12.466 6.94
108 1 0 3.256 3.256 16.15
109 1 0 8.782 19.835 14.308
110 1 0 16.15 25.361 19.835
111 1 0 1.413 27.203 25.361
112 1 0 14.308 1.413 25.361
113 1 0 19.835 1.413 19.835
114 1 0 3.256 21.677 19.835
115 1 0 29.045 14.308 12.466
116 1 0 1.413 10.624 21.677
117 1 0 19.835 12.466 16.15
118 1 0 1.413 5.098 17.992
119 1 0 29.045 21.677 25.361
120 1 0 14.308 21.677 3.256
121 1 0 3.256 25.361 19.835
122 1 0 17.992 6.94 10.624
123 1 0 8.782 10.624 5.098
124 1 0 23.519 6.94 1.413
125 1 0 14.308 3.256 23.519
126 1 0 10.624 6.94 6.94
127 1 0 8.782 1.413 23.519
128 1 0 23.519 8.782 23.519
129 1 0 16.15 27.203 23.519
130 1 0 6.94 14.308 6.94
131 1 0 27.203 5.098 29.045
132 1 0 29.045 3.256 3.256
133 1 0 27.203 23.519 25.361
134 1 0 16.15 8.782 12.466
135 1 0 14.308 10.624 12.466
136 1 0 21.677 8.782 3.256
137 1 0 3.256 27.203 5.098
138 1 0 3.256 12.466 10.624
139 1 0 1.413 19.835 21.677
140 1 0 27.203 25.361 16.15
141 1 0 25.361 21.677 8.782
142 1 0 6.94 5.098 25.361
143 1 0 10.624 8.782 23.519
144 1 0 29.045 29.045 3.256
145 1 0 1.413 25.361 6.94
146 1 0 1.413 23.519 8.782
147 1 0 12.466 5.098 29.045
148 1 0 19.835 3.256 12.466
149 1 0 10.624 29.045 3.256
150 1 0 21.677 19.835 6.94
151 1 0 14.308 3.256 5.098
152 1 0 19.835 25.361 6.94
153 1 0 8.782 19.835 5.098
154 1 0 17.992 21.677 16.15
155 1 0 27.203 17.992 23.519
156 1 0 10.624 21.677 19.835
157 1 0 5.098 25.361 8.782
158 1 0 6.94 8.782 25.361
159 1 0 3.256 25.361 3.256
160 1 0 27.203 3.256 27.203
161 1 0 29.045 8.782 25.361
162 1 0 19.835 5.098 27.203
163 1 0 6.94 21.677 14.308
164 1 0 19.835 19.835 3.256
165 1 0 5.098 16.15 8.782
166 1 0 6.94 16.15 5.098
167 1 0 6.94 21.677 21.677
168 1 0 27.203 25.361 6.94
169 1 0 19.835 27.203 29.045
170 1 0 6.94 14.308 16.15
171 1 0 21.677 21.677 29.045
172 1 0 3.256 16.15 16.15
173 1 0 16.15 21.677 29.045
174 1 0 8.782 6.94 19.835
175 1 0 16.15 1.413 3.256
176 1 0 12.466 14.308 3.256
177 1 0 8.782 10.624 27.203
178 1 0 29.045 14.308 23.519
179 1 0 21.677 16.15 29.045
180 1 0 1.413 6.94 25.361
181 1 0 5.098 8.782 1.413
182 1 0 16.15 5.098 16.15
183 1 0 17.992 6.94 23.519
184 1 0 19.835 23.519 23.519
185 1 0 19.835 25.361 1.413
186 1 0 14.308 25.361 25.361
187 1 0 8.782 8.782 17.992
188 1 0 16.15 25.361 3.256
189 1 0 10.624 5.098 6.94
190 1 0 6.94 6.94 19.835
191 1 0 10.624 1.413 21.677
192 1 0 5.098 23.519 21.677
193 1 0 1.413 16.15 1.413
194 1 0 8.782 29.045 21.677
195 1 0 29.045 10.624 8.782
196 1 0 1.413 19.835 27.203
197 1 0 17.992 12.466 25.361
198 1 0 27.203 1.413 14.308
199 1 0 3.256 5.098 1.413
200 1 0 19.835 10.624 12.466
201 1 0 5.098 8.782 10.624
202 1 0 29.045 1.413 10.624
203 1 0 5.098 10.624 27.203
204 1 0 8.782 8.782 21.677
205 1 0 25.361 17.992 5.098
206 1 0 17.992 14.308 10.624
207 1 0 19.835 27.203 16.15
208 1 0 8.782 27.203 14.308
209 1 0 17.992 12.466 29.045
210 1 0 5.098 23.519 19.835
211 1 0 8.782 14.308 17.992
212 1 0 8.782 5.098 10.624
213 1 0 12.466 5.098 14.308
214 1 0 19.835 16.15 14.308
215 1 0 21.677 12.466 21.677
216 1 0 27.203 6.94 29.045
217 1 0 16.15 16.15 10.624
218 1 0 6.94 10.624 3.256
219 1 0 5.098 14.308 23.519
220 1 0 8.782 12.466 3.256
221 1 0 1.413 21.677 25.361
222 1 0 29.045 6.94 16.15
223 1 0 1.413 1.413 5.098
224 1 0 21.677 6.94 21.677
225 1 0 21.677 19.835 21.677
226 1 0 12.466 8.782 10.624
227 1 0 17.992 8.782 6.94
228 1 0 1.413 1.413 27.203
229 1 0 5.098 16.15 25.361
230 1 0 23.519 19.835 27.203
231 1 0 5.098 17.992 16.15
232 1 0 29.045 6.94 27.203
233 1 0 14.308 17.992 16.15
234 1 0 23.519 19.835 14.308
235 1 0 6.94 8.782 6.94
236 1 0 16.15 10.624 16.15
237 1 0 3.256 14.308 25.361
238 1 0 10.624 12.466 17.992
239 1 0 21.677 12.466 6.94
240 1 0 21.677 17.992 25.361
241 1 0 21.677 10.624 16.15
242 1 0 8.782 29.045 19.835
243 1 0 6.94 3.256 8.782
244 1 0 25.361 25.361 23.519
245 1 0 16.15 25.361 1.413
246 1 0 27.203 27.203 25.361
247 1 0 27.203 16.15 10.624
248 1 0 25.361 8.782 6.94
249 1 0 10.624 5.098 8.782
250 1 0 8.782 23.519 29.045
251 1 0 3.256 1.413 8.782
252 1 0 27.203 23.519 6.94
253 1 0 16.15 23.519 23.519
254 1 0 16.15 25.361 29.045
255 1 0 8.782 1.413 12.466
256 1 0 19.835 5.098 17.992
257 1 0 3.256 17.992 16.15
258 1 0 5.098 17.992 27.203
259 1 0 17.992 3.256 12.466
260 1 0 19.835 3.256 19.835
261 1 0 12.466 12.466 17.992
262 1 0 17.992 27.203 6.94
263 1 0 12.466 17.992 25.361
264 1 0 8.782 17.992 27.203
265 1 0 17.992 29.045 19.835
266 1 0 17.992 19.835 27.203
267 1 0 23.519 19.835 3.256
268 1 0 5.098 12.466 17.992
269 1 0 29.045 1.413 5.098
270 1 0 23.519 3.256 23.519
271 1 0 21.677 23.519 10.624
272 1 0 23.519 10.624 21.677
273 1 0 16.15 5.098 27.203
274 1 0 29.045 27.203 5.098
275 1 0 25.361 25.361 6.94
276 1 0 27.203 10.624 19.835
277 1 0 5.098 5.098 8.782
278 1 0 10.624 29.045 19.835
279 1 0 25.361 25.361 10.624
280 1 0 16.15 5.098 10.624
281 1 0 5.098 19.835 8.782
282 1 0 19.835 23.519 27.203
283 1 0 10.624 16.15 8.782
284 1 0 27.203 17.992 21.677
285 1 0 16.15 8.782 17.992
286 1 0 8.782 21.677 6.94
287 1 0 12.466 16.15 21.677
288 1 0 21.677 19.835 12.466
289 1 0 14.308 16.15 1.413
290 1 0 29.045 6.94 25.361
291 1 0 19.835 23.519 8.782
292 1 0 17.992 3.256 3.256
293 1 0 23.519 23.519 23.519
294 1 0 12.466 6.94 25.361
295 1 0 25.361 10.624 25.361
296 1 0 5.098 21.677 29.045
297 1 0 3.256 14.308 8.782
298 1 0 10.624 8.782 8.782
299 1 0 14.308 14.308 21.677
300 1 0 21.677 27.203 29.045
301 1 0 1.413 10.624 25.361
302 1 0 16.15 29.045 27.203
303 1 0 6.94 12.466 6.94
304 1 0 19.835 25.361 12.466
305 1 0 3.256 27.203 23.519
306 1 0 19.835 16.15 1.413
307 1 0 19.835 25.361 16.15
308 1 0 14.308 1.413 14.308
309 1 0 3.256 12.466 25.361
310 1 0 23.519 25.361 19.835
311 1 0 12.466 5.098 25.361
312 1 0 16.15 19.835 14.308
313 1 0 12.466 29.045 10.624
314 1 0 23.519 23.519 19.835
315 1 0 25.361 23.519 19.835
316 1 0 10.624 1.413 3.256
317 1 0 19.835 25.361 27.203
318 1 0 10.624 16.15 10.624
319 1 0 1.413 5.098 6.94
320 1 0 29.045 10.624 21.677
321 1 0 8.782 3.256 1.413
322 1 0 19.835 17.992 10.624
323 1 0 5.098 3.256 5.098
324 1 0 12.466 1.413 14.308
325 1 0 23.519 1.413 16.15
326 1 0 17.992 5.098 10.624
327 1 0 12.466 6.94 16.15
328 1 0 5.098 3.256 27.203
329 1 0 5.098 8.782 27.203
330 1 0 29.045 14.308 19.835
331 1 0 27.203 5.098 16.15
332 1 0 19.835 1.413 16.15
333 1 0 14.308 5.098 12.466
334 1 0 8.782 3.256 12.466
335 1 0 23.519 10.624 23.519
336 1 0 8.782 23.519 23.519
337 1 0 25.361 27.203 5.098
338 1 0 10.624 14.308 14.308
339 1 0 29.045 27.203 29.045
340 1 0 6.94 23.519 14.308
341 1 0 12.466 14.308 17.992
342 1 0 19.835 5.098 12.466
343 1 0 25.361 10.624 1.413
344 1 0 16.15 29.045 14.308
345 1 0 17.992 12.466 12.466
346 1 0 14.308 5.098 29.045
347 1 0 16.15 17.992 29.045
348 1 0 3.256 19.835 1.413
349 1 0 27.203 1.413 27.203
350 1 0 14.308 19.835 10.624
351 1 0 14.308 6.94 16.15
352 1 0 21.677 14.308 5.098
353 1 0 25.361 12.466 10.624
354 1 0 25.361 29.045 29.045
355 1 0 14.308 5.098 6.94
356 1 0 6.94 6.94 17.992
357 1 0 6.94 29.045 6.94
358 1 0 6.94 16.15 8.782
359 1 0 3.256 19.835 5.098
360 1 0 25.361 25.361 21.677
361 1 0 3.256 1.413 12.466
362 1 0 6.94 5.098 8.782
363 1 0 16.15 1.413 17.992
364 1 0 6.94 29.045 29.045
365 1 0 10.624 12.466 29.045
366 1 0 6.94 19.835 10.624
367 1 0 17.992 21.677 5.098
368 1 0 21.677 1.413 5.098
369 1 0 14.308 12.466 8.782
370 1 0 29.045 10.624 17.992
371 1 0 25.361 10.624 5.098
372 1 0 19.835 16.15 3.256
373 1 0 10.624 8.782 19.835
374 1 0 23.519 10.624 10.624
375 1 0 19.835 17.992 16.15
376 1 0 27.203 19.835 3.256
377 1 0 10.624 21.677 25.361
378 1 0 27.203 29.045 27.203
379 1 0 8.782 12.466 16.15
380 1 0 16.15 25.361 8.782
381 1 0 27.203 23.519 27.203
382 1 0 3.256 12.466 3.256
383 1 0 5.098 3.256 8.782
384 1 0 3.256 16.15 27.203
385 1 0 23.519 27.203 14.308
386 1 0 21.677 29.045 12.466
387 1 0 19.835 5.098 21.677
388 1 0 6.94 8.782 29.045
389 1 0 16.15 21.677 23.519
390 1 0 14.308 25.361 29.045
391 1 0 8.782 14.308 12.466
392 1 0 25.361 19.835 25.361
393 1 0 27.203 1.413 29.045
394 1 0 1.413 16.15 27.203
395 1 0 29.045 1.413 3.256
396 1 0 8.782 1.413 5.098
397 1 0 17.992 19.835 29.045
398 1 0 3.256 23.519 8.782
399 1 0 21.677 29.045 14.308
400 1 0 10.624 25.361 19.835
401 1 0 5.098 29.045 8.782
402 1 0 19.835 8.782 29.045
403 1 0 10.624 1.413 10.624
404 1 0 5.098 6.94 23.519
405 1 0 19.835 8.782 23.519
406 1 0 6.94 6.94 27.203
407 1 0 29.045 5.098 23.519
408 1 0 21.677 5.098 21.677
409 1 0 23.519 23.519 1.413
410 1 0 10.624 29.045 6.94
411 1 0 21.677 27.203 21.677
412 1 0 17.992 27.203 5.098
413 1 0 16.15 12.466 23.519
414 1 0 3.256 6.94 5.098
415 1 0 23.519 16.15 23.519
416 1 0 16.15 10.624 23.519
417 1 0 16.15 16.15 17.992
418 1 0 29.045 17.992 23.519
419 1 0 29.045 3.256 27.203
420 1 0 3.256 3.256 5.098
421 1 0 6.94 8.782 8.782
422 1 0 17.992 25.361 3.256
423 1 0 27.203 6.94 27.203
424 1 0 10.624 5.098 25.361
425 1 0 8.782 21.677 1.413
426 1 0 1.413 25.361 3.256
427 1 0 5.098 23.519 12.466
428 1 0 10.624 3.256 16.15
429 1 0 19.835 25.361 17.992
430 1 0 17.992 6.94 19.835
431 1 0 29.045 27.203 19.835
432 1 0 3.256 16.15 3.256
433 1 0 25.361 5.098 23.519
434 1 0 19.835 10.624 8.782
435 1 0 10.624 14.308 19.835
436 1 0 14.308 29.045 16.15
437 1 0 25.361 23.519 29.045
438 1 0 3.256 10.624 27.203
439 1 0 12.466 29.045 17.992
440 1 0 14.308 5.098 3.256
441 1 0 8.782 12.466 14.308
442 1 0 23.519 6.94 14.308
443 1 0 14.308 17.992 23.519
444 1 0 14.308 16.15 6.94
445 1 0 14.308 17.992 17.992
446 1 0 21.677 10.624 27.203
447 1 0 16.15 17.992 27.203
448 1 0 12.466 3.256 23.519
449 1 0 14.308 23.519 5.098
450 1 0 8.782 19.835 8.782
451 1 0 19.835 29.045 17.992
452 1 0 29.045 12.466 23.519
453 1 0 17.992 27.203 21.677
454 1 0 12.466 3.256 1.413
455 1 0 12.466 3.256 12.466
456 1 0 17.992 3.256 5.098
457 1 0 8.782 21.677 3.256
458 1 0 27.203 19.835 25.361
459 1 0 21.677 14.308 6.94
460 1 0 1.413 29.045 19.835
461 1 0 3.256 8.782 6.94
462 1 0 6.94 3.256 5.098
463 1 0 3.256 8.782 27.203
464 1 0 17.992 29.045 5.098
465 1 0 27.203 14.308 23.519
466 1 0 5.098 29.045 29.045
467 1 0 1.413 14.308 16.15
468 1 0 17.992 5.098 12.466
469 1 0 12.466 12.466 12.466
470 1 0 23.519 1.413 8.782
471 1 0 29.045 3.256 17.992
472 1 0 25.361 1.413 12.466
473 1 0 23.519 5.098 19.835
474 1 0 6.94 19.835 17.992
475 1 0 27.203 27.203 6.94
476 1 0 14.308 8.782 16.15
477 1 0 25.361 6.94 29.045
478 1 0 21.677 25.361 21.677
479 1 0 16.15 10.624 3.256
480 1 0 3.256 5.098 19.835
481 1 0 23.519 1.413 29.045
482 1 0 25.361 12.466 23.519
483 1 0 16.15 21.677 14.308
484 1 0 21.677 29.045 6.94
485 1 0 25.361 25.361 16.15
486 1 0 12.466 5.098 16.15
487 1 0 27.203 3.256 17.992
488 1 0 21.677 3.256 29.045
489 1 0 19.835 16.15 12.466
490 1 0 8.782 6.94 29.045
491 1 0 21.677 6.94 8.782
492 1 0 10.624 6.94 5.098
493 1 0 5.098 12.466 5.098
494 1 0 6.94 19.835 5.098
495 1 0 21.677 10.624 12.466
496 1 0 10.624 17.992 10.624
497 1 0 14.308 17.992 25.361
498 1 0 23.519 10.624 29.045
499 1 0 10.624 10.624 21.677
500 1 0 27.203 6.94 6.94
501 1 0 21.677 6.94 25.361
502 1 0 17.992 21.677 12.466
503 1 0 3.256 8.782 16.15
504 1 0 27.203 6.94 14.308
505 1 0 29.045 8.782 19.835
506 1 0 23.519 6.94 25.361
507 1 0 3.256 5.098 6.94
508 1 0 17.992 8.782 17.992
509 1 0 23.519 19.835 19.835
510 1 0 21.677 1.413 16.15
511 1 0 16.15 10.624 8.782
512 1 0 14.308 19.835 17.992
513 1 0 25.361 3.256 25.361
514 1 0 17.992 23.519 1.413
515 1 0 27.203 6.94 1.413
516 1 0 6.94 25.361 10.624
517 1 0 8.782 5.098 6.94
518 1 0 21.677 14.308 27.203
519 1 0 19.835 8.782 19.835
520 1 0 14.308 6.94 3.256
521 1 0 17.992 23.519 21.677
522 1 0 21.677 27.203 19.835
523 1 0 1.413 25.361 21.677
524 1 0 12.466 14.308 10.624
525 1 0 25.361 8.782 16.15
526 1 0 12.466 6.94 1.413
527 1 0 29.045 5.098 1.413
528 1 0 16.15 23.519 17.992
529 1 0 10.624 23.519 29.045
530 1 0 27.203 5.098 10.624
531 1 0 12.466 23.519 14.308
532 1 0 10.624 19.835 29.045
533 1 0 3.256 17.992 25.361
534 1 0 29.045 1.413 14.308
535 1 0 19.835 1.413 12.466
536 1 0 29.045 1.413 1.413
537 1 0 21.677 12.466 1.413
538 1 0 14.308 23.519 6.94
539 1 0 19.835 6.94 12.466
540 1 0 10.624 8.782 17.992
541 1 0 6.94 21.677 29.045
542 1 0 5.098 21.677 25.361
543 1 0 16.15 14.308 17.992
544 1 0 25.361 12.466 29.045
545 1 0 12.466 23.519 16.15
546 1 0 12.466 1.413 16.15
547 1 0 19.835 8.782 14.308
548 1 0 6.94 3.256 14.308
549 1 0 16.15 17.992 19.835
550 1 0 6.94 27.203 27.203
551 1 0 21.677 3.256 16.15
552 1 0 1.413 12.466 16.15
553 1 0 25.361 1.413 6.94
554 1 0 25.361 17.992 16.15
555 1 0 27.203 25.361 10.624
556 1 0 1.413 19.835 8.782
557 1 0 17.992 19.835 10.624
558 1 0 1.413 14.308 14.308
559 1 0 17.992 6.94 14.308
560 1 0 10.624 29.045 27.203
561 1 0 1.413 21.677 6.94
562 1 0 8.782 21.677 21.677
563 1 0 14.308 10.624 19.835
564 1 0 25.361 1.413 1.413
565 1 0 14.308 6.94 19.835
566 1 0 10.624 17.992 12.466
567 1 0 6.94 25.361 25.361
568 1 0 29.045 5.098 6.94
569 1 0 21.677 16.15 17.992
570 1 0 10.624 21.677 27.203
571 1 0 19.835 10.624 23.519
572 1 0 5.098 29.045 6.94
573 1 0 25.361 3.256 17.992
574 1 0 10.624 16.15 14.308
575 1 0 27.203 19.835 17.992
576 1 0 29.045 23.519 17.992
577 1 0 19.835 5.098 5.098
578 1 0 1.413 21.677 17.992
579 1 0 3.256 3.256 6.94
580 1 0 1.413 16.15 23.519
581 1 0 29.045 23.519 27.203
582 1 0 29.045 16.15 25.361
583 1 0 27.203 6.94 5.098
584 1 0 17.992 27.203 17.992
585 1 0 1.413 27.203 1.413
586 1 0 3.256 3.256 14.308
587 1 0 27.203 5.098 27.203
588 1 0 25.361 23.519 5.098
589 1 0 19.835 16.15 17.992
590 1 0 10.624 29.045 25.361
591 1 0 5.098 3.256 6.94
592 1 0 8.782 19.835 23.519
593 1 0 3.256 23.519 10.624
594 1 0 10.624 8.782 29.045
595 1 0 21.677 19.835 5.098
596 1 0 6.94 10.624 16.15
597 1 0 17.992 29.045 1.413
598 1 0 10.624 5.098 12.466
599 1 0 23.519 16.15 16.15
600 1 0 8.782 5.098 8.782
601 1 0 29.045 12.466 3.256
602 1 0 21.677 21.677 23.519
603 1 0 23.519 19.835 23.519
604 1 0 21.677 19.835 23.519
605 1 0 27.203 23.519 19.835
606 1 0 10.624 19.835 6.94
607 1 0 29.045 21.677 16.15
608 1 0 16.15 6.94 12.466
609 1 0 10.624 27.203 3.256
610 1 0 29.045 17.992 5.098
611 1 0 3.256 21.677 5.098
612 1 0 12.466 19.835 5.098
613 1 0 29.045 23.519 14.308
614 1 0 14.308 3.256 6.94
615 1 0 27.203 8.782 25.361
616 1 0 6.94 6.94 23.519
617 1 0 23.519 6.94 23.519
618 1 0 10.624 21.677 3.256
619 1 0 6.94 25.361 5.098
620 1 0 12.466 10.624 5.098
621 1 0 8.782 3.256 17.992
622 1 0 23.519 17.992 19.835
623 1 0 5.098 12.466 16.15
624 1 0 19.835 1.413 29.045
625 1 0 23.519 19.835 25.361
626 1 0 14.308 17.992 10.624
627 1 0 3.256 5.098 27.203
628 1 0 14.308 8.782 19.835
629 1 0 1.413 10.624 1.413
630 1 0 29.045 17.992 27.203
631 1 0 3.256 3.256 1.413
632 1 0 16.15 12.466 6.94
633 1 0 8.782 27.203 16.15
634 1 0 12.466 16.15 25.361
635 1 0 27.203 19.835 27.203
636 1 0 8.782 12.466 27.203
637 1 0 27.203 16.15 8.782
638 1 0 19.835 21.677 14.308
639 1 0 27.203 21.677 27.203
640 1 0 25.361 8.782 10.624
641 1 0 29.045 6.94 21.677
642 1 0 6.94 21.677 8.782
643 1 0 27.203 8.782 5.098
644 1 0 8.782 23.519 8.782
645 1 0 6.94 25.361 8.782
646 1 0 21.677 23.519 29.045
647 1 0 16.15 12.466 5.098
648 1 0 16.15 8.782 8.782
649 1 0 1.413 23.519 5.098
650 1 0 23.519 29.045 16.15
651 1 0 3.256 17.992 29.045
652 1 0 29.045 10.624 12.466
653 1 0 21.677 5.098 14.308
654 1 0 5.098 6.94 21.677
655 1 0 1.413 1.413 21.677
656 1 0 29.045 27.203 27.203
657 1 0 23.519 6.94 8.782
658 1 0 25.361 5.098 21.677
659 1 0 3.256 5.098 16.15
660 1 0 14.308 29.045 19.835
661 1 0 19.835 5.098 29.045
662 1 0 14.308 16.15 27.203
663 1 0 23.519 8.782 16.15
664 1 0 8.782 6.94 23.519
665 1 0 8.782 3.256 25.361
666 1 0 1.413 16.15 19.835
667 1 0 14.308 29.045 3.256
668 1 0 14.308 14.308 25.361
669 1 0 12.466 6.94 14.308
670 1 0 14.308 21.677 16.15
671 1 0 5.098 25.361 27.203
672 1 0 14.308 6.94 21.677
673 1 0 1.413 29.045 17.992
674 1 0 6.94 5.098 1.413
675 1 0 23.519 27.203 25.361
676 1 0 5.098 29.045 25.361
677 1 0 29.045 21.677 3.256
678 1 0 1.413 25.361 29.045
679 1 0 21.677 23.519 6.94
680 1 0 6.94 23.519 19.835
681 1 0 5.098 25.361 16.15
682 1 0 6.94 3.256 3.256
683 1 0 27.203 21.677 1.413
684 1 0 25.361 8.782 12.466
685 1 0 16.15 19.835 16.15
686 1 0 25.361 25.361 3.256
687 1 0 5.098 19.835 23.519
688 1 0 25.361 17.992 10.624
689 1 0 3.256 29.045 5.098
690 1 0 8.782 17.992 12.466
691 1 0 6.94 25.361 21.677
692 1 0 19.835 17.992 3.256
693 1 0 17.992 8.782 19.835
694 1 0 25.361 29.045 19.835
695 1 0 23.519 6.94 10.624
696 1 0 1.413 6.94 16.15
697 1 0 27.203 1.413 16.15
698 1 0 3.256 12.466 27.203
699 1 0 16.15 23.519 29.045
700 1 0 10.624 16.15 29.045
701 1 0 29.045 21.677 27.203
702 1 0 29.045 17.992 6.94
703 1 0 29.045 10.624 10.624
704 1 0 17.992 23.519 19.835
705 1 0 17.992 27.203 14.308
706 1 0 5.098 27.203 14.308
707 1 0 6.94 6.94 10.624
708 1 0 17.992 19.835 19.835
709 1 0 16.15 17.992 25.361
710 1 0 6.94 23.519 29.045
711 1 0 21.677 17.992 23.519
712 1 0 29.045 29.045 5.098
713 1 0 16.15 3.256 8.782
714 1 0 17.992 1.413 10.624
715 1 0 27.203 21.677 25.361
716 1 0 17.992 10.624 25.361
717 1 0 27.203 23.519 1.413
718 1 0 12.466 3.256 16.15
719 1 0 23.519 14.308 27.203
720 1 0 6.94 6.94 6.94
721 1 0 1.413 14.308 1.413
722 1 0 14.308 23.519 19.835
723 1 0 3.256 8.782 14.308
724 1 0 14.308 23.519 29.045
725 1 0 12.466 23.519 1.413
726 1 0 16.15 14.308 29.045
727 1 0 10.624 14.308 16.15
728 1 0 10.624 29.045 14.308
729 1 0 17.992 27.203 23.519
730 1 0 16.15 1.413 21.677
731 1 0 21.677 21.677 1.413
732 1 0 5.098 25.361 14.308
733 1 0 6.94 16.15 19.835
734 1 0 17.992 8.782 1.413
735 1 0 1.413 16.15 25.361
736 1 0 16.15 29.045 16.15
737 1 0 29.045 17.992 14.308
738 1 0 6.94 5.098 14.308
739 1 0 5.098 14.308 8.782
740 1 0 27.203 25.361 12.466
741 1 0 21.677 16.15 10.624
742 1 0 12.466 14.308 6.94
743 1 0 10.624 10.624 6.94
744 1 0 17.992 12.466 6.94
745 1 0 5.098 3.256 12.466
746 1 0 12.466 27.203 1.413
747 1 0 21.677 1.413 8.782
748 1 0 3.256 14.308 10.624
749 1 0 27.203 29.045 10.624
750 1 0 17.992 17.992 17.992
751 1 0 12.466 10.624 23.519
752 1 0 21.677 12.466 3.256
753 1 0 14.308 19.835 5.098
754 1 0 16.15 27.203 1.413
755 1 0 8.782 10.624 1.413
756 1 0 23.519 5.098 27.203
757 1 0 14.308 21.677 10.624
758 1 0 3.256 3.256 21.677
759 1 0 14.308 16.15 10.624
760 1 0 10.624 29.045 16.15
761 1 0 27.203 29.045 8.782
762 1 0 29.045 5.098 10.624
763 1 0 21.677 10.624 17.992
764 1 0 29.045 27.203 16.15
765 1 0 6.94 3.256 17.992
766 1 0 25.361 5.098 12.466
767 1 0 3.256 14.308 3.256
768 1 0 6.94 19.835 3.256
769 1 0 5.098 5.098 3.256
770 1 0 17.992 27.203 12.466
771 1 0 19.835 14.308 25.361
772 1 0 5.098 10.624 12.466
773 1 0 14.308 25.361 3.256
774 1 0 16.15 21.677 19.835
775 1 0 23.519 10.624 27.203
776 1 0 16.15 21.677 12.466
777 1 0 23.519 14.308 21.677
778 1 0 27.203 3.256 25.361
779 1 0 19.835 10.624 10.624
780 1 0 19.835 21.677 25.361
781 1 0 17.992 10.624 12.466
782 1 0 5.098 17.992 12.466
783 1 0 19.835 1.413 27.203
784 1 0 10.624 1.413 16.15
785 1 0 25.361 3.256 16.15
786 1 0 5.098 6.94 27.203
787 1 0 19.835 3.256 6.94
788 1 0 14.308 14.308 23.519
789 1 0 16.15 23.519 10.624
790 1 0 17.992 19.835 12.466
791 1 0 27.203 1.413 8.782
792 1 0 25.361 14.308 19.835
793 1 0 5.098 5.098 6.94
794 1 0 6.94 8.782 17.992
795 1 0 27.203 6.94 8.782
796 1 0 1.413 3.256 1.413
797 1 0 12.466 14.308 19.835
798 1 0 6.94 16.15 25.361
799 1 0 10.624 10.624 16.15
800 1 0 10.624 23.519 3.256
801 2 0 25.361 3.256 14.308
802 2 0 27.203 27.203 12.466
803 2 0 5.098 12.466 8.782
804 2 0 17.992 3.256 21.677
805 2 0 23.519 25.361 5.098
806 2 0 21.677 5.098 6.94
807 2 0 29.045 21.677 1.413
808 2 0 3.256 27.203 6.94
809 2 0 29.045 25.361 25.361
810 2 0 10.624 14.308 8.782
811 2 0 8.782 14.308 5.098
812 2 0 27.203 3.256 1.413
813 2 0 16.15 17.992 14.308
814 2 0 17.992 17.992 21.677
815 2 0 14.308 14.308 17.992
816 2 0 14.308 12.466 10.624
817 2 0 17.992 8.782 29.045
818 2 0 23.519 27.203 21.677
819 2 0 25.361 21.677 17.992
820 2 0 6.94 25.361 19.835
821 2 0 6.94 12.466 14.308
822 2 0 17.992 14.308 29.045
823 2 0 8.782 3.256 21.677
824 2 0 19.835 16.15 16.15
825 2 0 29.045 3.256 19.835
826 2 0 29.045 5.098 29.045
827 2 0 23.519 29.045 1.413
828 2 0 1.413 5.098 5.098
829 2 0 5.098 14.308 5.098
830 2 0 1.413 5.098 21.677
831 2 0 21.677 16.15 8.782
832 2 0 29.045 5.098 16.15
833 2 0 23.519 16.15 25.361
834 2 0 21.677 8.782 23.519
835 2 0 23.519 23.519 10.624
836 2 0 10.624 5.098 29.045
837 2 0 27.203 21.677 8.782
838 2 0 25.361 12.466 21.677
839 2 0 17.992 19.835 16.15
840 2 0 19.835 12.466 29.045
841 2 0 23.519 27.203 1.413
842 2 0 21.677 16.15 5.098
843 2 0 21.677 12.466 14.308
844 2 0 14.308 25.361 10.624
845 2 0 16.15 25.361 10.624
846 2 0 25.361 14.308 12.466
847 2 0 12.466 17.992 21.677
848 2 0 27.203 5.098 19.835
849 2 0 12.466 3.256 27.203
850 2 0 21.677 10.624 14.308
851 2 0 12.466 29.045 19.835
852 2 0 12.466 29.045 14.308
853 2 0 1.413 12.466 10.624
854 2 0 19.835 19.835 10.624
855 2 0 27.203 21.677 29.045
856 2 0 3.256 19.835 3.256
857 2 0 6.94 3.256 21.677
858 2 0 16.15 14.308 23.519
859 2 0 16.15 23.519 3.256
860 2 0 3.256 21.677 1.413
861 2 0 6.94 3.256 10.624
862 2 0 19.835 23.519 12.466
863 2 0 25.361 17.992 19.835
864 2 0 27.203 8.782 12.466
865 2 0 10.624 27.203 17.992
866 2 0 17.992 3.256 25.361
867 2 0 3.256 29.045 10.624
868 2 0 17.992 8.782 14.308
869 2 0 17.992 8.782 12.466
870 2 0 21.677 5.098 16.15
871 2 0 6.94 14.308 19.835
872 2 0 19.835 25.361 21.677
873 2 0 6.94 10.624 17.992
874 2 0 17.992 5.098 3.256
875 2 0 25.361 19.835 8.782
876 2 0 10.624 25.361 16.15
877 2 0 19.835 29.045 1.413
878 2 0 5.098 5.098 25.361
879 2 0 8.782 6.94 21.677
880 2 0 12.466 21.677 17.992
881 2 0 23.519 12.466 14.308
882 2 0 12.466 5.098 10.624
883 2 0 25.361 6.94 25.361
884 2 0 1.413 19.835 12.466
885 2 0 17.992 21.677 14.308
886 2 0 6.94 1.413 16.15
887 2 0 14.308 14.308 3.256
888 2 0 23.519 1.413 3.256
889 2 0 12.466 12.466 8.782
890 2 0 25.361 3.256 5.098
891 2 0 1.413 17.992 14.308
892 2 0 21.677 23.519 23.519
893 2 0 16.15 25.361 12.466
894 2 0 25.361 19.835 6.94
895 2 0 23.519 17.992 14.308
896 2 0 14.308 27.203 21.677
897 2 0 25.361 27.203 29.045
898 2 0 25.361 27.203 10.624
899 2 0 25.361 16.15 23.519
900 2 0 25.361 10.624 21.677
901 2 0 10.624 17.992 3.256
902 2 0 10.624 6.94 25.361
903 2 0 1.413 27.203 29.045
904 2 0 10.624 21.677 1.413
905 2 0 17.992 21.677 25.361
906 2 0 6.94 25.361 16.15
907 2 0 1.413 8.782 21.677
908 2 0 16.15 14.308 5.098
909 2 0 3.256 5.098 10.624
910 2 0 10.624 8.782 27.203
911 2 0 23.519 8.782 12.466
912 2 0 21.677 1.413 27.203
913 2 0 6.94 25.361 29.045
914 2 0 27.203 23.519 3.256
915 2 0 19.835 23.519 6.94
916 2 0 1.413 6.94 1.413
917 2 0 14.308 1.413 23.519
918 2 0 17.992 5.098 8.782
919 2 0 25.361 10.624 3.256
920 2 0 8.782 16.15 23.519
921 2 0 17.992 29.045 12.466
922 2 0 10.624 1.413 12.466
923 2 0 1.413 12.466 21.677
924 2 0 10.624 8.782 21.677
925 2 0 27.203 29.045 5.098
926 2 0 1.413 5.098 27.203
927 2 0 25.361 17.992 23.519
928 2 0 14.308 14.308 16.15
929 2 0 27.203 3.256 10.624
930 2 0 29.045 21.677 8.782
931 2 0 10.624 25.361 6.94
932 2 0 17.992 3.256 23.519
933 2 0 19.835 29.045 19.835
934 2 0 1.413 3.256 3.256
935 2 0 1.413 14.308 5.098
936 2 0 10.624 1.413 29.045
937 2 0 10.624 23.519 19.835
938 2 0 16.15 10.624 19.835
939 2 0 1.413 27.203 16.15
940 2 0 10.624 12.466 27.203
941 2 0 3.256 23.519 25.361
942 2 0 6.94 17.992 25.361
943 2 0 6.94 12.466 17.992
944 2 0 3.256 19.835 12.466
945 2 0 19.835 19.835 23.519
946 2 0 25.361 27.203 8.782
947 2 0 29.045 17.992 29.045
948 2 0 3.256 25.361 8.782
949 2 0 3.256 14.308 17.992
950 2 0 29.045 3.256 23.519
951 2 0 29.045 12.466 5.098
952 2 0 1.413 23.519 10.624
953 2 0 12.466 12.466 27.203
954 2 0 14.308 19.835 8.782
955 2 0 12.466 27.203 29.045
956 2 0 17.992 10.624 29.045
957 2 0 12.466 29.045 6.94
958 2 0 27.203 17.992 6.94
959 2 0 10.624 27.203 10.624
960 2 0 23.519 8.782 14.308
961 2 0 8.782 14.308 10.624
962 2 0 5.098 27.203 19.835
963 2 0 12.466 12.466 5.098
964 2 0 5.098 12.466 19.835
965 2 0 21.677 19.835 1.413
966 2 0 16.15 5.098 12.466
967 2 0 10.624 23.519 23.519
968 2 0 10.624 6.94 8.782
969 2 0 17.992 10.624 10.624
970 2 0 10.624 23.519 8.782
971 2 0 8.782 19.835 1.413
972 2 0 10.624 3.256 10.624
973 2 0 21.677 14.308 21.677
974 2 0 12.466 25.361 14.308
975 2 0 10.624 1.413 17.992
976 2 0 8.782 1.413 16.15
977 2 0 14.308 21.677 23.519
978 2 0 14.308 5.098 5.098
979 2 0 1.413 16.15 12.466
980 2 0 16.15 23.519 14.308
981 2 0 27.203 14.308 16.15
982 2 0 5.098 23.519 17.992
983 2 0 17.992 25.361 1.413
984 2 0 27.203 8.782 29.045
985 2 0 12.466 16.15 6.94
986 2 0 8.782 19.835 21.677
987 2 0 27.203 29.045 29.045
988 2 0 6.94 14.308 17.992
989 2 0 21.677 3.256 17.992
990 2 0 21.677 25.361 14.308
991 2 0 14.308 27.203 6.94
992 2 0 19.835 8.782 3.256
993 2 0 23.519 3.256 3.256
994 2 0 12.466 21.677 23.519
995 2 0 14.308 1.413 8.782
996 2 0 17.992 5.098 16.15
997 2 0 12.466 21.677 5.098
998 2 0 19.835 14.308 29.045
999 2 0 8.782 17.992 14.308
1000 2 0 21.677 5.098 29.045
1001 2 0 17.992 21.677 17.992
1002 2 0 27.203 12.466 14.308
1003 2 0 21.677 27.203 17.992
1004 2 0 27.203 3.256 23.519
1005 2 0 25.361 14.308 29.045
1006 2 0 8.782 17.992 8.782
1007 2 0 27.203 8.782 14.308
1008 2 0 23.519 8.782 8.782
1009 2 0 25.361 19.835 10.624
1010 2 0 3.256 5.098 25.361
1011 2 0 3.256 10.624 6.94
1012 2 0 3.256 27.203 25.361
1013 2 0 16.15 12.466 12.466
1014 2 0 8.782 21.677 8.782
1015 2 0 1.413 17.992 19.835
1016 2 0 10.624 21.677 16.15
1017 2 0 23.519 8.782 10.624
1018 2 0 8.782 6.94 5.098
1019 2 0 10.624 5.098 17.992
1020 2 0 10.624 17.992 1.413
1021 2 0 3.256 14.308 16.15
1022 2 0 25.361 29.045 27.203
1023 2 0 5.098 10.624 3.256
1024 2 0 21.677 23.519 21.677
1025 2 0 16.15 12.466 25.361
1026 2 0 23.519 29.045 19.835
1027 2 0 27.203 10.624 17.992
1028 2 0 19.835 17.992 1.413
1029 2 0 19.835 23.519 17.992
1030 2 0 5.098 3.256 10.624
1031 2 0 29.045 25.361 17.992
1032 2 0 19.835 23.519 21.677
1033 2 0 29.045 23.519 12.466
1034 2 0 19.835 12.466 3.256
1035 2 0 27.203 25.361 14.308
1036 2 0 19.835 16.15 23.519
1037 2 0 10.624 25.361 17.992
1038 2 0 16.15 16.15 3.256
1039 2 0 23.519 12.466 16.15
1040 2 0 6.94 29.045 14.308
1041 2 0 25.361 5.098 19.835
1042 2 0 16.15 6.94 19.835
1043 2 0 8.782 16.15 6.94
1044 2 0 12.466 10.624 6.94
1045 2 0 21.677 8.782 25.361
1046 2 0 19.835 8.782 21.677
1047 2 0 5.098 19.835 5.098
1048 2 0 23.519 21.677 14.308
1049 2 0 1.413 25.361 5.098
1050 2 0 27.203 10.624 6.94
1051 2 0 3.256 1.413 27.203
1052 2 0 6.94 5.098 16.15
1053 2 0 3.256 3.256 10.624
1054 2 0 14.308 23.519 27.203
1055 2 0 16.15 1.413 10.624
1056 2 0 21.677 27.203 6.94
1057 2 0 12.466 16.15 17.992
1058 2 0 29.045 3.256 16.15
1059 2 0 1.413 29.045 6.94
1060 2 0 5.098 23.519 3.256
1061 2 0 27.203 12.466 3.256
1062 2 0 27.203 23.519 17.992
1063 2 0 1.413 8.782 3.256
1064 2 0 12.466 27.203 10.624
1065 2 0 5.098 8.782 5.098
1066 2 0 1.413 5.098 10.624
1067 2 0 29.045 10.624 19.835
1068 2 0 5.098 6.94 3.256
1069 2 0 6.94 6.94 3.256
1070 2 0 27.203 3.256 14.308
1071 2 0 16.15 3.256 16.15
1072 2 0 21.677 19.835 8.782
1073 2 0 10.624 25.361 21.677
1074 2 0 19.835 27.203 23.519
1075 2 0 10.624 1.413 23.519
1076 2 0 10.624 5.098 27.203
1077 2 0 14.308 8.782 29.045
1078 2 0 5.098 16.15 27.203