#Generated From Cif

2800 atoms
0 bonds
0 angles
0 dihedrals
0 impropers
3 atom types

0 31.38728031121348 xlo xhi
0 31.38728031121348 ylo yhi
0 31.38728031121348 zlo zhi

Atoms

1 1 0 25.361 27.203 21.677
2 1 0 5.098 6.94 16.15
3 1 0 6.94 23.519 16.15
4 1 0 25.361 6.94 8.782
5 1 0 23.519 16.15 5.098
6 1 0 1.413 6.94 1.413
7 1 0 12.466 10.624 8.782
8 1 0 23.519 16.15 3.256
9 1 0 16.15 6.94 6.94
10 1 0 27.203 12.466 3.256
11 1 0 25.361 14.308 25.361
12 1 0 25.361 14.308 5.098
13 1 0 19.835 8.782 29.045
14 1 0 29.045 17.992 6.94
15 1 0 19.835 1.413 23.519
16 1 0 1.413 1.413 29.045
17 1 0 17.992 27.203 5.098
18 1 0 16.15 14.308 29.045
19 1 0 21.677 1.413 29.045
20 1 0 16.15 29.045 6.94
21 1 0 10.624 5.098 17.992
22 1 0 10.624 6.94 21.677
23 1 0 6.94 14.308 19.835
24 1 0 10.624 1.413 27.203
25 1 0 10.624 29.045 8.782
26 1 0 19.835 25.361 25.361
27 1 0 25.361 14.308 16.15
28 1 0 17.992 25.361 25.361
29 1 0 12.466 3.256 17.992
30 1 0 1.413 23.519 1.413
31 1 0 25.361 27.203 25.361
32 1 0 12.466 21.677 25.361
33 1 0 25.361 10.624 1.413
34 1 0 1.413 27.203 12.466
35 1 0 27.203 19.835 29.045
36 1 0 19.835 14.308 3.256
37 1 0 5.098 8.782 5.098
38 1 0 29.045 5.098 6.94
39 1 0 12.466 3.256 21.677
40 1 0 8.782 29.045 5.098
41 1 0 3.256 29.045 25.361
42 1 0 14.308 10.624 23.519
43 1 0 21.677 12.466 27.203
44 1 0 12.466 27.203 21.677
45 1 0 19.835 21.677 27.203
46 1 0 23.519 29.045 5.098
47 1 0 29.045 5.098 12.466
48 1 0 12.466 16.15 23.519
49 1 0 17.992 6.94 16.15
50 1 0 29.045 8.782 6.94
51 1 0 29.045 8.782 25.361
52 1 0 10.624 17.992 25.361
53 1 0 3.256 14.308 12.466
54 1 0 23.519 17.992 16.15
55 1 0 21.677 12.466 1.413
56 1 0 5.098 10.624 14.308
57 1 0 6.94 27.203 19.835
58 1 0 29.045 12.466 27.203
59 1 0 3.256 3.256 23.519
60 1 0 5.098 6.94 25.361
61 1 0 25.361 21.677 27.203
62 1 0 10.624 27.203 14.308
63 1 0 25.361 27.203 27.203
64 1 0 27.203 6.94 1.413
65 1 0 3.256 3.256 12.466
66 1 0 5.098 16.15 16.15
67 1 0 21.677 1.413 16.15
68 1 0 14.308 16.15 12.466
69 1 0 23.519 14.308 1.413
70 1 0 16.15 21.677 1.413
71 1 0 5.098 19.835 29.045
72 1 0 14.308 6.94 8.782
73 1 0 17.992 1.413 8.782
74 1 0 5.098 17.992 16.15
75 1 0 3.256 3.256 19.835
76 1 0 17.992 14.308 17.992
77 1 0 5.098 21.677 12.466
78 1 0 14.308 19.835 3.256
79 1 0 14.308 1.413 6.94
80 1 0 12.466 8.782 19.835
81 1 0 19.835 16.15 8.782
82 1 0 21.677 23.519 16.15
83 1 0 12.466 8.782 25.361
84 1 0 10.624 14.308 12.466
85 1 0 29.045 10.624 16.15
86 1 0 16.15 25.361 16.15
87 1 0 10.624 10.624 23.519
88 1 0 14.308 17.992 1.413
89 1 0 25.361 21.677 5.098
90 1 0 16.15 10.624 23.519
91 1 0 17.992 6.94 14.308
92 1 0 1.413 27.203 6.94
93 1 0 1.413 8.782 6.94
94 1 0 14.308 14.308 16.15
95 1 0 10.624 5.098 16.15
96 1 0 1.413 27.203 16.15
97 1 0 19.835 5.098 16.15
98 1 0 16.15 16.15 10.624
99 1 0 25.361 25.361 1.413
100 1 0 17.992 25.361 1.413
101 1 0 12.466 10.624 12.466
102 1 0 17.992 27.203 1.413
103 1 0 1.413 1.413 23.519
104 1 0 14.308 16.15 6.94
105 1 0 25.361 1.413 17.992
106 1 0 27.203 3.256 8.782
107 1 0 29.045 29.045 10.624
108 1 0 12.466 23.519 6.94
109 1 0 27.203 25.361 3.256
110 1 0 19.835 29.045 21.677
111 1 0 23.519 27.203 19.835
112 1 0 29.045 17.992 23.519
113 1 0 3.256 29.045 19.835
114 1 0 29.045 25.361 27.203
115 1 0 6.94 3.256 5.098
116 1 0 12.466 1.413 19.835
117 1 0 6.94 12.466 27.203
118 1 0 17.992 5.098 12.466
119 1 0 12.466 10.624 29.045
120 1 0 6.94 27.203 1.413
121 1 0 1.413 6.94 8.782
122 1 0 29.045 23.519 14.308
123 1 0 14.308 23.519 10.624
124 1 0 1.413 8.782 10.624
125 1 0 1.413 1.413 27.203
126 1 0 14.308 8.782 10.624
127 1 0 6.94 21.677 19.835
128 1 0 29.045 16.15 17.992
129 1 0 21.677 29.045 3.256
130 1 0 12.466 16.15 6.94
131 1 0 3.256 6.94 29.045
132 1 0 3.256 14.308 6.94
133 1 0 25.361 25.361 17.992
134 1 0 21.677 25.361 12.466
135 1 0 27.203 25.361 16.15
136 1 0 19.835 17.992 1.413
137 1 0 21.677 27.203 29.045
138 1 0 23.519 3.256 25.361
139 1 0 25.361 5.098 27.203
140 1 0 5.098 19.835 12.466
141 1 0 19.835 12.466 3.256
142 1 0 25.361 5.098 3.256
143 1 0 25.361 19.835 12.466
144 1 0 12.466 6.94 27.203
145 1 0 5.098 8.782 19.835
146 1 0 5.098 25.361 27.203
147 1 0 19.835 16.15 25.361
148 1 0 29.045 14.308 19.835
149 1 0 5.098 12.466 29.045
150 1 0 12.466 5.098 1.413
151 1 0 17.992 8.782 16.15
152 1 0 6.94 5.098 1.413
153 1 0 17.992 16.15 1.413
154 1 0 17.992 23.519 19.835
155 1 0 6.94 8.782 25.361
156 1 0 16.15 19.835 3.256
157 1 0 12.466 19.835 23.519
158 1 0 27.203 14.308 5.098
159 1 0 19.835 23.519 17.992
160 1 0 23.519 6.94 19.835
161 1 0 17.992 23.519 27.203
162 1 0 1.413 5.098 16.15
163 1 0 29.045 19.835 3.256
164 1 0 21.677 12.466 14.308
165 1 0 10.624 21.677 12.466
166 1 0 17.992 27.203 25.361
167 1 0 1.413 12.466 23.519
168 1 0 27.203 19.835 6.94
169 1 0 17.992 1.413 29.045
170 1 0 23.519 1.413 29.045
171 1 0 1.413 14.308 10.624
172 1 0 16.15 21.677 16.15
173 1 0 8.782 14.308 25.361
174 1 0 21.677 21.677 8.782
175 1 0 21.677 23.519 12.466
176 1 0 25.361 25.361 21.677
177 1 0 16.15 5.098 23.519
178 1 0 8.782 29.045 10.624
179 1 0 6.94 16.15 1.413
180 1 0 6.94 21.677 10.624
181 1 0 5.098 23.519 8.782
182 1 0 12.466 10.624 25.361
183 1 0 6.94 16.15 12.466
184 1 0 14.308 5.098 5.098
185 1 0 21.677 23.519 27.203
186 1 0 6.94 6.94 29.045
187 1 0 21.677 1.413 1.413
188 1 0 6.94 10.624 12.466
189 1 0 8.782 3.256 5.098
190 1 0 21.677 10.624 16.15
191 1 0 10.624 14.308 8.782
192 1 0 6.94 5.098 23.519
193 1 0 1.413 12.466 12.466
194 1 0 6.94 12.466 6.94
195 1 0 8.782 29.045 17.992
196 1 0 25.361 5.098 1.413
197 1 0 16.15 3.256 5.098
198 1 0 10.624 10.624 1.413
199 1 0 29.045 17.992 14.308
200 1 0 5.098 3.256 3.256
201 1 0 16.15 3.256 3.256
202 1 0 16.15 5.098 29.045
203 1 0 10.624 25.361 19.835
204 1 0 12.466 14.308 3.256
205 1 0 27.203 29.045 16.15
206 1 0 14.308 3.256 1.413
207 1 0 8.782 3.256 8.782
208 1 0 19.835 3.256 21.677
209 1 0 3.256 23.519 10.624
210 1 0 3.256 25.361 23.519
211 1 0 19.835 19.835 1.413
212 1 0 23.519 27.203 25.361
213 1 0 25.361 19.835 27.203
214 1 0 25.361 17.992 16.15
215 1 0 3.256 8.782 27.203
216 1 0 12.466 21.677 12.466
217 1 0 29.045 5.098 10.624
218 1 0 29.045 21.677 1.413
219 1 0 1.413 16.15 1.413
220 1 0 3.256 1.413 27.203
221 1 0 14.308 27.203 25.361
222 1 0 29.045 6.94 8.782
223 1 0 10.624 3.256 27.203
224 1 0 23.519 29.045 10.624
225 1 0 29.045 3.256 23.519
226 1 0 21.677 16.15 29.045
227 1 0 27.203 1.413 17.992
228 1 0 10.624 14.308 17.992
229 1 0 17.992 14.308 21.677
230 1 0 25.361 14.308 8.782
231 1 0 14.308 5.098 23.519
232 1 0 8.782 6.94 29.045
233 1 0 10.624 17.992 12.466
234 1 0 17.992 27.203 14.308
235 1 0 14.308 6.94 27.203
236 1 0 23.519 17.992 3.256
237 1 0 12.466 21.677 8.782
238 1 0 27.203 16.15 21.677
239 1 0 8.782 17.992 16.15
240 1 0 23.519 29.045 27.203
241 1 0 8.782 12.466 6.94
242 1 0 23.519 19.835 27.203
243 1 0 25.361 19.835 19.835
244 1 0 23.519 25.361 5.098
245 1 0 19.835 16.15 19.835
246 1 0 5.098 12.466 5.098
247 1 0 6.94 17.992 21.677
248 1 0 23.519 17.992 10.624
249 1 0 10.624 14.308 5.098
250 1 0 17.992 8.782 5.098
251 1 0 23.519 19.835 23.519
252 1 0 27.203 21.677 3.256
253 1 0 29.045 1.413 10.624
254 1 0 3.256 5.098 27.203
255 1 0 23.519 23.519 16.15
256 1 0 3.256 6.94 27.203
257 1 0 16.15 14.308 19.835
258 1 0 29.045 27.203 3.256
259 1 0 16.15 25.361 1.413
260 1 0 5.098 1.413 10.624
261 1 0 23.519 5.098 10.624
262 1 0 21.677 27.203 14.308
263 1 0 1.413 12.466 3.256
264 1 0 3.256 25.361 29.045
265 1 0 21.677 12.466 25.361
266 1 0 27.203 17.992 19.835
267 1 0 5.098 23.519 19.835
268 1 0 16.15 6.94 27.203
269 1 0 17.992 19.835 25.361
270 1 0 25.361 21.677 25.361
271 1 0 25.361 17.992 5.098
272 1 0 17.992 12.466 5.098
273 1 0 1.413 1.413 1.413
274 1 0 14.308 12.466 5.098
275 1 0 5.098 3.256 6.94
276 1 0 8.782 14.308 19.835
277 1 0 16.15 29.045 25.361
278 1 0 3.256 23.519 29.045
279 1 0 8.782 23.519 6.94
280 1 0 29.045 12.466 19.835
281 1 0 21.677 5.098 14.308
282 1 0 23.519 21.677 27.203
283 1 0 25.361 10.624 29.045
284 1 0 27.203 12.466 14.308
285 1 0 1.413 16.15 8.782
286 1 0 27.203 19.835 21.677
287 1 0 16.15 10.624 21.677
288 1 0 12.466 29.045 29.045
289 1 0 5.098 23.519 25.361
290 1 0 16.15 29.045 16.15
291 1 0 3.256 27.203 17.992
292 1 0 6.94 5.098 14.308
293 1 0 29.045 17.992 19.835
294 1 0 23.519 6.94 3.256
295 1 0 8.782 27.203 29.045
296 1 0 12.466 5.098 25.361
297 1 0 5.098 6.94 3.256
298 1 0 1.413 25.361 5.098
299 1 0 14.308 14.308 6.94
300 1 0 17.992 29.045 19.835
301 1 0 3.256 17.992 6.94
302 1 0 16.15 10.624 27.203
303 1 0 8.782 25.361 1.413
304 1 0 12.466 29.045 27.203
305 1 0 8.782 27.203 6.94
306 1 0 23.519 23.519 19.835
307 1 0 27.203 3.256 10.624
308 1 0 5.098 12.466 16.15
309 1 0 10.624 21.677 3.256
310 1 0 14.308 1.413 14.308
311 1 0 23.519 5.098 21.677
312 1 0 17.992 25.361 3.256
313 1 0 1.413 3.256 23.519
314 1 0 17.992 3.256 29.045
315 1 0 3.256 12.466 6.94
316 1 0 1.413 21.677 12.466
317 1 0 23.519 5.098 17.992
318 1 0 17.992 21.677 16.15
319 1 0 29.045 21.677 8.782
320 1 0 3.256 29.045 6.94
321 1 0 8.782 25.361 16.15
322 1 0 29.045 19.835 5.098
323 1 0 29.045 8.782 29.045
324 1 0 19.835 1.413 19.835
325 1 0 23.519 23.519 10.624
326 1 0 21.677 27.203 10.624
327 1 0 27.203 3.256 27.203
328 1 0 17.992 1.413 10.624
329 1 0 17.992 6.94 6.94
330 1 0 10.624 23.519 25.361
331 1 0 27.203 10.624 12.466
332 1 0 21.677 21.677 25.361
333 1 0 21.677 14.308 23.519
334 1 0 27.203 23.519 16.15
335 1 0 6.94 10.624 29.045
336 1 0 6.94 6.94 16.15
337 1 0 25.361 5.098 16.15
338 1 0 1.413 14.308 25.361
339 1 0 6.94 1.413 14.308
340 1 0 6.94 25.361 5.098
341 1 0 27.203 14.308 19.835
342 1 0 1.413 10.624 17.992
343 1 0 29.045 19.835 14.308
344 1 0 3.256 25.361 14.308
345 1 0 16.15 21.677 10.624
346 1 0 3.256 27.203 8.782
347 1 0 3.256 17.992 1.413
348 1 0 16.15 3.256 27.203
349 1 0 14.308 25.361 1.413
350 1 0 19.835 1.413 29.045
351 1 0 6.94 5.098 3.256
352 1 0 19.835 25.361 21.677
353 1 0 8.782 6.94 19.835
354 1 0 6.94 19.835 3.256
355 1 0 6.94 10.624 6.94
356 1 0 14.308 17.992 8.782
357 1 0 16.15 23.519 6.94
358 1 0 10.624 12.466 21.677
359 1 0 5.098 16.15 8.782
360 1 0 1.413 6.94 27.203
361 1 0 6.94 29.045 19.835
362 1 0 3.256 23.519 17.992
363 1 0 12.466 10.624 1.413
364 1 0 5.098 10.624 25.361
365 1 0 23.519 17.992 14.308
366 1 0 3.256 14.308 8.782
367 1 0 1.413 1.413 5.098
368 1 0 3.256 12.466 16.15
369 1 0 3.256 25.361 16.15
370 1 0 3.256 14.308 23.519
371 1 0 8.782 5.098 16.15
372 1 0 19.835 21.677 8.782
373 1 0 17.992 14.308 14.308
374 1 0 6.94 19.835 12.466
375 1 0 6.94 23.519 21.677
376 1 0 25.361 23.519 19.835
377 1 0 21.677 8.782 27.203
378 1 0 19.835 19.835 19.835
379 1 0 1.413 8.782 16.15
380 1 0 19.835 8.782 19.835
381 1 0 5.098 8.782 1.413
382 1 0 1.413 3.256 8.782
383 1 0 3.256 27.203 10.624
384 1 0 16.15 6.94 3.256
385 1 0 10.624 5.098 10.624
386 1 0 21.677 27.203 1.413
387 1 0 6.94 29.045 6.94
388 1 0 19.835 10.624 12.466
389 1 0 25.361 12.466 12.466
390 1 0 17.992 25.361 21.677
391 1 0 16.15 5.098 10.624
392 1 0 8.782 6.94 23.519
393 1 0 19.835 1.413 6.94
394 1 0 25.361 19.835 25.361
395 1 0 3.256 27.203 21.677
396 1 0 16.15 23.519 29.045
397 1 0 1.413 14.308 21.677
398 1 0 12.466 21.677 27.203
399 1 0 29.045 12.466 21.677
400 1 0 10.624 5.098 12.466
401 1 0 23.519 12.466 21.677
402 1 0 25.361 8.782 21.677
403 1 0 1.413 29.045 16.15
404 1 0 16.15 1.413 17.992
405 1 0 17.992 17.992 29.045
406 1 0 8.782 19.835 19.835
407 1 0 25.361 29.045 1.413
408 1 0 3.256 8.782 29.045
409 1 0 8.782 29.045 6.94
410 1 0 8.782 10.624 1.413
411 1 0 21.677 23.519 29.045
412 1 0 5.098 1.413 6.94
413 1 0 23.519 25.361 8.782
414 1 0 8.782 3.256 14.308
415 1 0 14.308 23.519 5.098
416 1 0 12.466 12.466 25.361
417 1 0 23.519 6.94 5.098
418 1 0 19.835 5.098 8.782
419 1 0 1.413 6.94 16.15
420 1 0 14.308 6.94 5.098
421 1 0 29.045 6.94 17.992
422 1 0 29.045 1.413 14.308
423 1 0 17.992 5.098 8.782
424 1 0 29.045 17.992 29.045
425 1 0 10.624 27.203 1.413
426 1 0 23.519 8.782 14.308
427 1 0 27.203 25.361 12.466
428 1 0 10.624 29.045 23.519
429 1 0 27.203 29.045 21.677
430 1 0 3.256 3.256 6.94
431 1 0 1.413 14.308 12.466
432 1 0 27.203 19.835 23.519
433 1 0 17.992 12.466 27.203
434 1 0 6.94 19.835 19.835
435 1 0 10.624 25.361 25.361
436 1 0 14.308 5.098 10.624
437 1 0 29.045 29.045 25.361
438 1 0 27.203 5.098 29.045
439 1 0 1.413 27.203 8.782
440 1 0 19.835 17.992 3.256
441 1 0 21.677 12.466 8.782
442 1 0 3.256 8.782 14.308
443 1 0 8.782 10.624 27.203
444 1 0 23.519 5.098 25.361
445 1 0 16.15 14.308 3.256
446 1 0 19.835 10.624 3.256
447 1 0 29.045 29.045 12.466
448 1 0 1.413 29.045 19.835
449 1 0 12.466 1.413 10.624
450 1 0 29.045 29.045 14.308
451 1 0 17.992 29.045 5.098
452 1 0 14.308 1.413 12.466
453 1 0 17.992 12.466 29.045
454 1 0 19.835 1.413 5.098
455 1 0 5.098 29.045 29.045
456 1 0 3.256 5.098 1.413
457 1 0 23.519 3.256 27.203
458 1 0 1.413 12.466 29.045
459 1 0 14.308 23.519 23.519
460 1 0 12.466 1.413 16.15
461 1 0 29.045 10.624 19.835
462 1 0 19.835 3.256 12.466
463 1 0 16.15 16.15 8.782
464 1 0 17.992 10.624 1.413
465 1 0 6.94 6.94 14.308
466 1 0 23.519 3.256 17.992
467 1 0 5.098 25.361 29.045
468 1 0 17.992 10.624 19.835
469 1 0 5.098 3.256 21.677
470 1 0 10.624 19.835 12.466
471 1 0 1.413 23.519 29.045
472 1 0 29.045 3.256 14.308
473 1 0 5.098 10.624 1.413
474 1 0 8.782 6.94 5.098
475 1 0 21.677 3.256 23.519
476 1 0 29.045 21.677 16.15
477 1 0 17.992 14.308 23.519
478 1 0 21.677 17.992 25.361
479 1 0 29.045 14.308 21.677
480 1 0 12.466 16.15 29.045
481 1 0 6.94 5.098 21.677
482 1 0 23.519 14.308 23.519
483 1 0 12.466 6.94 23.519
484 1 0 1.413 3.256 29.045
485 1 0 5.098 16.15 17.992
486 1 0 1.413 8.782 5.098
487 1 0 16.15 19.835 6.94
488 1 0 25.361 5.098 23.519
489 1 0 5.098 5.098 27.203
490 1 0 27.203 14.308 8.782
491 1 0 5.098 29.045 8.782
492 1 0 5.098 19.835 3.256
493 1 0 5.098 6.94 21.677
494 1 0 29.045 12.466 12.466
495 1 0 8.782 21.677 1.413
496 1 0 8.782 5.098 19.835
497 1 0 21.677 3.256 5.098
498 1 0 23.519 19.835 25.361
499 1 0 16.15 17.992 5.098
500 1 0 12.466 6.94 10.624
501 1 0 17.992 23.519 29.045
502 1 0 21.677 27.203 23.519
503 1 0 5.098 29.045 27.203
504 1 0 1.413 21.677 21.677
505 1 0 29.045 10.624 1.413
506 1 0 27.203 25.361 23.519
507 1 0 1.413 1.413 19.835
508 1 0 25.361 19.835 23.519
509 1 0 27.203 21.677 16.15
510 1 0 27.203 6.94 17.992
511 1 0 25.361 6.94 16.15
512 1 0 27.203 21.677 5.098
513 1 0 16.15 16.15 3.256
514 1 0 25.361 23.519 27.203
515 1 0 3.256 27.203 29.045
516 1 0 5.098 19.835 8.782
517 1 0 19.835 10.624 19.835
518 1 0 14.308 12.466 16.15
519 1 0 10.624 10.624 5.098
520 1 0 19.835 17.992 16.15
521 1 0 19.835 5.098 27.203
522 1 0 23.519 23.519 12.466
523 1 0 5.098 1.413 1.413
524 1 0 14.308 8.782 3.256
525 1 0 10.624 3.256 5.098
526 1 0 6.94 12.466 3.256
527 1 0 8.782 23.519 1.413
528 1 0 29.045 23.519 21.677
529 1 0 25.361 14.308 1.413
530 1 0 19.835 3.256 5.098
531 1 0 1.413 23.519 12.466
532 1 0 16.15 25.361 19.835
533 1 0 29.045 17.992 21.677
534 1 0 29.045 16.15 23.519
535 1 0 12.466 8.782 23.519
536 1 0 23.519 17.992 6.94
537 1 0 16.15 17.992 16.15
538 1 0 16.15 19.835 25.361
539 1 0 6.94 16.15 14.308
540 1 0 16.15 29.045 17.992
541 1 0 14.308 29.045 6.94
542 1 0 14.308 23.519 12.466
543 1 0 29.045 12.466 3.256
544 1 0 29.045 16.15 1.413
545 1 0 21.677 19.835 3.256
546 1 0 1.413 16.15 6.94
547 1 0 10.624 8.782 16.15
548 1 0 5.098 25.361 14.308
549 1 0 8.782 21.677 6.94
550 1 0 3.256 1.413 16.15
551 1 0 23.519 6.94 6.94
552 1 0 12.466 1.413 23.519
553 1 0 14.308 29.045 5.098
554 1 0 16.15 23.519 17.992
555 1 0 21.677 1.413 10.624
556 1 0 16.15 8.782 3.256
557 1 0 12.466 27.203 23.519
558 1 0 19.835 19.835 23.519
559 1 0 6.94 29.045 14.308
560 1 0 21.677 17.992 23.519
561 1 0 6.94 10.624 19.835
562 1 0 16.15 8.782 19.835
563 1 0 29.045 16.15 8.782
564 1 0 6.94 14.308 14.308
565 1 0 19.835 19.835 6.94
566 1 0 17.992 10.624 6.94
567 1 0 10.624 19.835 25.361
568 1 0 3.256 14.308 17.992
569 1 0 29.045 19.835 27.203
570 1 0 3.256 23.519 16.15
571 1 0 25.361 16.15 21.677
572 1 0 25.361 25.361 8.782
573 1 0 21.677 3.256 19.835
574 1 0 27.203 6.94 3.256
575 1 0 17.992 5.098 27.203
576 1 0 12.466 10.624 14.308
577 1 0 5.098 17.992 29.045
578 1 0 16.15 21.677 14.308
579 1 0 29.045 8.782 12.466
580 1 0 8.782 5.098 17.992
581 1 0 6.94 17.992 8.782
582 1 0 16.15 5.098 19.835
583 1 0 19.835 3.256 8.782
584 1 0 27.203 17.992 21.677
585 1 0 10.624 16.15 1.413
586 1 0 29.045 25.361 3.256
587 1 0 6.94 8.782 21.677
588 1 0 16.15 3.256 16.15
589 1 0 21.677 29.045 23.519
590 1 0 27.203 27.203 5.098
591 1 0 17.992 3.256 19.835
592 1 0 25.361 19.835 1.413
593 1 0 19.835 14.308 16.15
594 1 0 29.045 14.308 29.045
595 1 0 3.256 8.782 5.098
596 1 0 12.466 17.992 17.992
597 1 0 14.308 10.624 12.466
598 1 0 1.413 17.992 10.624
599 1 0 16.15 25.361 29.045
600 1 0 19.835 19.835 17.992
601 1 0 21.677 23.519 17.992
602 1 0 14.308 3.256 25.361
603 1 0 14.308 21.677 8.782
604 1 0 25.361 16.15 8.782
605 1 0 21.677 19.835 23.519
606 1 0 14.308 23.519 8.782
607 1 0 19.835 19.835 21.677
608 1 0 27.203 17.992 14.308
609 1 0 12.466 17.992 25.361
610 1 0 27.203 23.519 17.992
611 1 0 12.466 14.308 19.835
612 1 0 21.677 10.624 14.308
613 1 0 6.94 8.782 29.045
614 1 0 16.15 29.045 23.519
615 1 0 6.94 27.203 10.624
616 1 0 19.835 8.782 6.94
617 1 0 14.308 6.94 25.361
618 1 0 19.835 21.677 19.835
619 1 0 5.098 6.94 1.413
620 1 0 29.045 27.203 14.308
621 1 0 10.624 19.835 8.782
622 1 0 17.992 27.203 21.677
623 1 0 5.098 29.045 10.624
624 1 0 17.992 27.203 10.624
625 1 0 14.308 25.361 19.835
626 1 0 16.15 16.15 14.308
627 1 0 12.466 5.098 27.203
628 1 0 6.94 8.782 8.782
629 1 0 17.992 5.098 5.098
630 1 0 29.045 5.098 29.045
631 1 0 29.045 6.94 19.835
632 1 0 12.466 8.782 17.992
633 1 0 19.835 21.677 25.361
634 1 0 8.782 19.835 29.045
635 1 0 3.256 12.466 17.992
636 1 0 10.624 1.413 19.835
637 1 0 6.94 29.045 25.361
638 1 0 6.94 16.15 6.94
639 1 0 16.15 5.098 5.098
640 1 0 29.045 3.256 16.15
641 1 0 29.045 25.361 5.098
642 1 0 3.256 8.782 3.256
643 1 0 8.782 19.835 10.624
644 1 0 23.519 17.992 12.466
645 1 0 3.256 10.624 6.94
646 1 0 14.308 14.308 29.045
647 1 0 25.361 23.519 23.519
648 1 0 19.835 27.203 5.098
649 1 0 21.677 10.624 10.624
650 1 0 27.203 5.098 17.992
651 1 0 10.624 21.677 19.835
652 1 0 27.203 19.835 17.992
653 1 0 27.203 1.413 3.256
654 1 0 16.15 27.203 29.045
655 1 0 14.308 12.466 12.466
656 1 0 6.94 6.94 23.519
657 1 0 21.677 29.045 14.308
658 1 0 14.308 23.519 19.835
659 1 0 21.677 27.203 6.94
660 1 0 16.15 8.782 29.045
661 1 0 19.835 3.256 19.835
662 1 0 23.519 10.624 3.256
663 1 0 3.256 25.361 21.677
664 1 0 21.677 12.466 29.045
665 1 0 10.624 12.466 8.782
666 1 0 8.782 5.098 29.045
667 1 0 21.677 10.624 5.098
668 1 0 19.835 19.835 3.256
669 1 0 5.098 29.045 14.308
670 1 0 14.308 5.098 12.466
671 1 0 29.045 17.992 1.413
672 1 0 16.15 10.624 29.045
673 1 0 5.098 27.203 19.835
674 1 0 1.413 29.045 6.94
675 1 0 5.098 6.94 10.624
676 1 0 23.519 3.256 19.835
677 1 0 25.361 12.466 16.15
678 1 0 6.94 1.413 3.256
679 1 0 17.992 14.308 5.098
680 1 0 27.203 12.466 19.835
681 1 0 17.992 25.361 16.15
682 1 0 6.94 1.413 17.992
683 1 0 16.15 25.361 5.098
684 1 0 29.045 14.308 1.413
685 1 0 23.519 10.624 8.782
686 1 0 16.15 3.256 19.835
687 1 0 8.782 1.413 19.835
688 1 0 3.256 17.992 12.466
689 1 0 25.361 16.15 27.203
690 1 0 1.413 27.203 23.519
691 1 0 12.466 19.835 3.256
692 1 0 14.308 29.045 17.992
693 1 0 10.624 23.519 1.413
694 1 0 8.782 5.098 8.782
695 1 0 21.677 17.992 19.835
696 1 0 10.624 5.098 23.519
697 1 0 6.94 10.624 23.519
698 1 0 8.782 19.835 12.466
699 1 0 23.519 8.782 16.15
700 1 0 17.992 8.782 14.308
701 1 0 21.677 6.94 21.677
702 1 0 17.992 19.835 6.94
703 1 0 19.835 19.835 5.098
704 1 0 21.677 29.045 10.624
705 1 0 10.624 27.203 8.782
706 1 0 25.361 1.413 14.308
707 1 0 1.413 6.94 17.992
708 1 0 12.466 19.835 21.677
709 1 0 23.519 23.519 27.203
710 1 0 14.308 16.15 8.782
711 1 0 3.256 27.203 19.835
712 1 0 10.624 29.045 17.992
713 1 0 19.835 16.15 29.045
714 1 0 3.256 10.624 12.466
715 1 0 1.413 25.361 25.361
716 1 0 23.519 25.361 25.361
717 1 0 10.624 6.94 23.519
718 1 0 25.361 12.466 8.782
719 1 0 17.992 19.835 10.624
720 1 0 21.677 19.835 29.045
721 1 0 21.677 6.94 14.308
722 1 0 1.413 25.361 29.045
723 1 0 17.992 21.677 1.413
724 1 0 29.045 25.361 10.624
725 1 0 8.782 17.992 23.519
726 1 0 1.413 3.256 17.992
727 1 0 14.308 1.413 21.677
728 1 0 14.308 1.413 19.835
729 1 0 12.466 10.624 16.15
730 1 0 10.624 8.782 3.256
731 1 0 6.94 19.835 8.782
732 1 0 21.677 21.677 29.045
733 1 0 21.677 5.098 6.94
734 1 0 1.413 17.992 23.519
735 1 0 6.94 3.256 25.361
736 1 0 5.098 14.308 16.15
737 1 0 14.308 12.466 23.519
738 1 0 6.94 1.413 8.782
739 1 0 16.15 12.466 21.677
740 1 0 29.045 27.203 6.94
741 1 0 3.256 1.413 21.677
742 1 0 21.677 25.361 25.361
743 1 0 27.203 8.782 1.413
744 1 0 3.256 3.256 17.992
745 1 0 12.466 8.782 16.15
746 1 0 10.624 27.203 27.203
747 1 0 3.256 8.782 23.519
748 1 0 23.519 27.203 17.992
749 1 0 3.256 19.835 27.203
750 1 0 21.677 3.256 3.256
751 1 0 3.256 16.15 19.835
752 1 0 10.624 21.677 1.413
753 1 0 3.256 21.677 5.098
754 1 0 1.413 1.413 3.256
755 1 0 17.992 27.203 29.045
756 1 0 23.519 3.256 8.782
757 1 0 27.203 1.413 12.466
758 1 0 16.15 23.519 12.466
759 1 0 19.835 19.835 16.15
760 1 0 27.203 29.045 3.256
761 1 0 16.15 1.413 10.624
762 1 0 12.466 17.992 5.098
763 1 0 14.308 3.256 14.308
764 1 0 5.098 1.413 12.466
765 1 0 23.519 12.466 23.519
766 1 0 3.256 14.308 3.256
767 1 0 12.466 6.94 16.15
768 1 0 3.256 6.94 17.992
769 1 0 19.835 14.308 14.308
770 1 0 21.677 16.15 17.992
771 1 0 16.15 23.519 23.519
772 1 0 6.94 21.677 8.782
773 1 0 12.466 6.94 3.256
774 1 0 3.256 23.519 6.94
775 1 0 8.782 16.15 14.308
776 1 0 3.256 3.256 10.624
777 1 0 8.782 23.519 14.308
778 1 0 8.782 12.466 17.992
779 1 0 3.256 5.098 19.835
780 1 0 1.413 5.098 12.466
781 1 0 21.677 21.677 12.466
782 1 0 12.466 27.203 8.782
783 1 0 1.413 27.203 29.045
784 1 0 8.782 8.782 16.15
785 1 0 6.94 19.835 10.624
786 1 0 6.94 25.361 23.519
787 1 0 17.992 27.203 19.835
788 1 0 6.94 23.519 25.361
789 1 0 14.308 19.835 23.519
790 1 0 25.361 29.045 25.361
791 1 0 3.256 6.94 3.256
792 1 0 27.203 21.677 29.045
793 1 0 21.677 25.361 14.308
794 1 0 12.466 5.098 5.098
795 1 0 16.15 5.098 3.256
796 1 0 6.94 8.782 19.835
797 1 0 1.413 27.203 10.624
798 1 0 17.992 3.256 16.15
799 1 0 1.413 10.624 23.519
800 1 0 21.677 19.835 19.835
801 2 0 1.413 14.308 5.098
802 2 0 29.045 27.203 10.624
803 2 0 10.624 21.677 21.677
804 2 0 1.413 8.782 1.413
805 2 0 21.677 8.782 3.256
806 2 0 21.677 5.098 27.203
807 2 0 10.624 23.519 12.466
808 2 0 29.045 6.94 12.466
809 2 0 17.992 1.413 17.992
810 2 0 21.677 14.308 29.045
811 2 0 14.308 8.782 1.413
812 2 0 23.519 10.624 29.045
813 2 0 6.94 25.361 8.782
814 2 0 19.835 23.519 23.519
815 2 0 17.992 19.835 14.308
816 2 0 3.256 17.992 27.203
817 2 0 21.677 14.308 27.203
818 2 0 19.835 6.94 10.624
819 2 0 21.677 14.308 21.677
820 2 0 25.361 6.94 1.413
821 2 0 17.992 16.15 3.256
822 2 0 5.098 12.466 10.624
823 2 0 21.677 19.835 16.15
824 2 0 29.045 16.15 10.624
825 2 0 27.203 3.256 5.098
826 2 0 21.677 23.519 14.308
827 2 0 27.203 21.677 17.992
828 2 0 16.15 23.519 19.835
829 2 0 8.782 8.782 8.782
830 2 0 8.782 21.677 17.992
831 2 0 8.782 8.782 21.677
832 2 0 10.624 25.361 29.045
833 2 0 12.466 25.361 25.361
834 2 0 23.519 27.203 16.15
835 2 0 14.308 25.361 10.624
836 2 0 8.782 8.782 25.361
837 2 0 6.94 3.256 23.519
838 2 0 14.308 17.992 19.835
839 2 0 10.624 29.045 12.466
840 2 0 25.361 8.782 1.413
841 2 0 5.098 1.413 5.098
842 2 0 23.519 1.413 3.256
843 2 0 23.519 8.782 3.256
844 2 0 6.94 23.519 23.519
845 2 0 29.045 23.519 5.098
846 2 0 1.413 14.308 16.15
847 2 0 5.098 3.256 12.466
848 2 0 6.94 3.256 17.992
849 2 0 8.782 3.256 19.835
850 2 0 5.098 6.94 23.519
851 2 0 21.677 5.098 1.413
852 2 0 17.992 5.098 16.15
853 2 0 5.098 1.413 14.308
854 2 0 23.519 1.413 27.203
855 2 0 17.992 19.835 27.203
856 2 0 1.413 1.413 12.466
857 2 0 29.045 25.361 14.308
858 2 0 27.203 1.413 8.782
859 2 0 12.466 12.466 23.519
860 2 0 10.624 27.203 12.466
861 2 0 8.782 12.466 12.466
862 2 0 10.624 25.361 5.098
863 2 0 16.15 12.466 19.835
864 2 0 3.256 19.835 21.677
865 2 0 6.94 23.519 27.203
866 2 0 25.361 23.519 8.782
867 2 0 21.677 16.15 21.677
868 2 0 14.308 5.098 19.835
869 2 0 8.782 8.782 27.203
870 2 0 14.308 16.15 3.256
871 2 0 12.466 10.624 17.992
872 2 0 14.308 29.045 10.624
873 2 0 16.15 1.413 27.203
874 2 0 3.256 23.519 14.308
875 2 0 25.361 17.992 21.677
876 2 0 17.992 14.308 12.466
877 2 0 19.835 17.992 19.835
878 2 0 12.466 23.519 8.782
879 2 0 19.835 5.098 5.098
880 2 0 21.677 27.203 21.677
881 2 0 25.361 23.519 21.677
882 2 0 5.098 23.519 1.413
883 2 0 6.94 21.677 23.519
884 2 0 12.466 8.782 8.782
885 2 0 19.835 16.15 21.677
886 2 0 3.256 6.94 21.677
887 2 0 21.677 25.361 16.15
888 2 0 27.203 25.361 1.413
889 2 0 8.782 25.361 12.466
890 2 0 6.94 12.466 14.308
891 2 0 19.835 5.098 19.835
892 2 0 12.466 10.624 5.098
893 2 0 1.413 14.308 14.308
894 2 0 6.94 23.519 3.256
895 2 0 3.256 23.519 19.835
896 2 0 27.203 1.413 29.045
897 2 0 25.361 1.413 25.361
898 2 0 25.361 12.466 10.624
899 2 0 1.413 29.045 12.466
900 2 0 12.466 5.098 10.624
901 2 0 1.413 1.413 16.15
902 2 0 8.782 21.677 8.782
903 2 0 29.045 3.256 5.098
904 2 0 5.098 12.466 12.466
905 2 0 17.992 10.624 3.256
906 2 0 8.782 12.466 27.203
907 2 0 16.15 14.308 21.677
908 2 0 12.466 1.413 14.308
909 2 0 12.466 25.361 5.098
910 2 0 19.835 19.835 25.361
911 2 0 29.045 10.624 27.203
912 2 0 25.361 17.992 29.045
913 2 0 23.519 14.308 29.045
914 2 0 8.782 27.203 27.203
915 2 0 17.992 3.256 8.782
916 2 0 16.15 8.782 23.519
917 2 0 23.519 14.308 19.835
918 2 0 5.098 8.782 27.203
919 2 0 17.992 3.256 3.256
920 2 0 12.466 10.624 6.94
921 2 0 19.835 29.045 19.835
922 2 0 6.94 17.992 14.308
923 2 0 1.413 6.94 14.308
924 2 0 12.466 5.098 12.466
925 2 0 29.045 19.835 17.992
926 2 0 10.624 29.045 3.256
927 2 0 29.045 17.992 5.098
928 2 0 27.203 14.308 12.466
929 2 0 16.15 17.992 6.94
930 2 0 23.519 23.519 3.256
931 2 0 3.256 16.15 10.624
932 2 0 29.045 27.203 25.361
933 2 0 8.782 10.624 6.94
934 2 0 29.045 6.94 25.361
935 2 0 3.256 16.15 21.677
936 2 0 21.677 8.782 5.098
937 2 0 3.256 27.203 12.466
938 2 0 6.94 14.308 1.413
939 2 0 29.045 3.256 8.782
940 2 0 16.15 23.519 21.677
941 2 0 14.308 29.045 1.413
942 2 0 27.203 12.466 21.677
943 2 0 6.94 29.045 27.203
944 2 0 23.519 23.519 23.519
945 2 0 10.624 3.256 14.308
946 2 0 8.782 17.992 12.466
947 2 0 27.203 6.94 14.308
948 2 0 5.098 17.992 23.519
949 2 0 3.256 27.203 16.15
950 2 0 27.203 25.361 8.782
951 2 0 27.203 14.308 23.519
952 2 0 1.413 25.361 10.624
953 2 0 23.519 16.15 12.466
954 2 0 1.413 8.782 12.466
955 2 0 17.992 29.045 14.308
956 2 0 5.098 25.361 1.413
957 2 0 3.256 14.308 19.835
958 2 0 17.992 5.098 10.624
959 2 0 23.519 14.308 27.203
960 2 0 6.94 25.361 17.992
961 2 0 6.94 17.992 6.94
962 2 0 3.256 25.361 8.782
963 2 0 8.782 27.203 3.256
964 2 0 19.835 29.045 3.256
965 2 0 14.308 3.256 23.519
966 2 0 23.519 1.413 12.466
967 2 0 8.782 5.098 12.466
968 2 0 5.098 6.94 19.835
969 2 0 6.94 25.361 6.94
970 2 0 16.15 27.203 3.256
971 2 0 17.992 25.361 19.835
972 2 0 12.466 14.308 8.782
973 2 0 6.94 19.835 14.308
974 2 0 19.835 6.94 19.835
975 2 0 21.677 21.677 19.835
976 2 0 14.308 10.624 17.992
977 2 0 1.413 21.677 14.308
978 2 0 3.256 3.256 29.045
979 2 0 3.256 23.519 8.782
980 2 0 14.308 16.15 10.624
981 2 0 6.94 10.624 5.098
982 2 0 23.519 16.15 23.519
983 2 0 27.203 23.519 10.624
984 2 0 29.045 1.413 8.782
985 2 0 16.15 17.992 3.256
986 2 0 14.308 12.466 14.308
987 2 0 21.677 10.624 23.519
988 2 0 1.413 29.045 1.413
989 2 0 8.782 16.15 16.15
990 2 0 3.256 17.992 3.256
991 2 0 10.624 16.15 12.466
992 2 0 10.624 29.045 5.098
993 2 0 16.15 27.203 1.413
994 2 0 5.098 19.835 5.098
995 2 0 16.15 29.045 8.782
996 2 0 25.361 8.782 17.992
997 2 0 16.15 10.624 6.94
998 2 0 25.361 21.677 23.519
999 2 0 16.15 10.624 16.15
1000 2 0 17.992 12.466 14.308
1001 2 0 3.256 25.361 3.256
1002 2 0 17.992 3.256 27.203
1003 2 0 6.94 5.098 10.624
1004 2 0 16.15 17.992 17.992
1005 2 0 19.835 3.256 17.992
1006 2 0 21.677 29.045 25.361
1007 2 0 25.361 8.782 5.098
1008 2 0 6.94 27.203 25.361
1009 2 0 29.045 1.413 16.15
1010 2 0 8.782 27.203 23.519
1011 2 0 3.256 17.992 14.308
1012 2 0 21.677 3.256 21.677
1013 2 0 6.94 21.677 3.256
1014 2 0 10.624 21.677 16.15
1015 2 0 16.15 3.256 10.624
1016 2 0 23.519 16.15 29.045
1017 2 0 8.782 10.624 8.782
1018 2 0 1.413 19.835 19.835
1019 2 0 5.098 14.308 25.361
1020 2 0 3.256 5.098 8.782
1021 2 0 21.677 25.361 1.413
1022 2 0 25.361 14.308 23.519
1023 2 0 12.466 23.519 16.15
1024 2 0 17.992 8.782 23.519
1025 2 0 8.782 1.413 16.15
1026 2 0 17.992 29.045 12.466
1027 2 0 3.256 14.308 27.203
1028 2 0 19.835 21.677 1.413
1029 2 0 21.677 23.519 6.94
1030 2 0 29.045 29.045 1.413
1031 2 0 29.045 1.413 21.677
1032 2 0 12.466 8.782 1.413
1033 2 0 27.203 10.624 6.94
1034 2 0 16.15 25.361 3.256
1035 2 0 3.256 25.361 6.94
1036 2 0 12.466 10.624 3.256
1037 2 0 23.519 5.098 14.308
1038 2 0 8.782 1.413 14.308
1039 2 0 1.413 10.624 5.098
1040 2 0 8.782 16.15 17.992
1041 2 0 1.413 1.413 21.677
1042 2 0 6.94 21.677 12.466
1043 2 0 3.256 5.098 10.624
1044 2 0 23.519 12.466 17.992
1045 2 0 19.835 29.045 8.782
1046 2 0 1.413 16.15 17.992
1047 2 0 1.413 17.992 6.94
1048 2 0 17.992 29.045 29.045
1049 2 0 5.098 12.466 27.203
1050 2 0 29.045 16.15 19.835
1051 2 0 21.677 6.94 27.203
1052 2 0 21.677 19.835 27.203
1053 2 0 29.045 6.94 6.94
1054 2 0 17.992 10.624 25.361
1055 2 0 1.413 5.098 21.677
1056 2 0 10.624 19.835 17.992
1057 2 0 10.624 5.098 29.045
1058 2 0 8.782 16.15 10.624
1059 2 0 3.256 12.466 8.782
1060 2 0 23.519 21.677 29.045
1061 2 0 27.203 14.308 29.045
1062 2 0 5.098 23.519 10.624
1063 2 0 19.835 25.361 12.466
1064 2 0 19.835 14.308 12.466
1065 2 0 6.94 19.835 5.098
1066 2 0 23.519 6.94 8.782
1067 2 0 10.624 3.256 1.413
1068 2 0 5.098 16.15 12.466
1069 2 0 3.256 6.94 8.782
1070 2 0 23.519 6.94 14.308
1071 2 0 12.466 17.992 8.782
1072 2 0 16.15 27.203 27.203
1073 2 0 27.203 1.413 23.519
1074 2 0 8.782 23.519 23.519
1075 2 0 14.308 16.15 1.413
1076 2 0 1.413 17.992 19.835
1077 2 0 16.15 10.624 12.466
1078 2 0 14.308 17.992 5.098
1079 2 0 8.782 10.624 14.308